%VERSION  VERSION_STAMP = V0001.000  DATE = 03/30/26  18:22:21                  
%FLAG TITLE                                                                     
%FORMAT(20a4)                                                                   
ACE                                                                             
%FLAG POINTERS                                                                  
%FORMAT(10I8)                                                                   
     144      11      64      83     144     114     333     333       0       0
     776      12      83     114     333      37      82      97      22       0
       0       0       0       0       0       0       0       0      24       0
       0
%FLAG ATOM_NAME                                                                 
%FORMAT(20a4)                                                                   
H1  CH3 H2  H3  C   O   N   H   CA  HA2 HA3 C   O   N   H   CA  HA  CB  HB2 HB3 
CG  CD1 HD1 CE1 HE1 CZ  OH  HH  CE2 HE2 CD2 HD2 C   O   N   H   CA  HA  CB  HB2 
HB3 CG  OD1 OD2 C   O   N   CD  HD2 HD3 CG  HG2 HG3 CB  HB2 HB3 CA  HA  C   O   
N   H   CA  HA  CB  HB2 HB3 CG  HG2 HG3 CD  OE1 OE2 C   O   N   H   CA  HA  CB  
HB  CG2 HG21HG22HG23OG1 HG1 C   O   N   H   CA  HA2 HA3 C   O   N   H   CA  HA  
CB  HB  CG2 HG21HG22HG23OG1 HG1 C   O   N   H   CA  HA  CB  HB2 HB3 CG  CD1 HD1 
NE1 HE1 CE2 CZ2 HZ2 CH2 HH2 CZ3 HZ3 CE3 HE3 CD2 C   O   N   H   CA  HA2 HA3 C   
O   N   HN1 HN2 
%FLAG CHARGE                                                                    
%FORMAT(5E16.8)                                                                 
  2.04636429E+00 -6.67300626E+00  2.04636429E+00  2.04636429E+00  1.08823576E+01
 -1.03484442E+01 -7.57501011E+00  4.95464337E+00 -4.59201960E-01  1.27191654E+00
  1.27191654E+00  1.08841798E+01 -1.03484442E+01 -7.57501011E+00  4.95464337E+00
 -2.55112200E-02  1.59627348E+00 -2.76978960E-01  5.37557850E-01  5.37557850E-01
 -2.00445300E-02 -3.47317038E+00  3.09596877E+00 -4.26584043E+00  3.01761288E+00
  5.87851398E+00 -1.01662212E+01  7.27434216E+00 -4.26584043E+00  3.01761288E+00
 -3.47317038E+00  3.09596877E+00  1.08841798E+01 -1.03484442E+01 -9.40817349E+00
  5.35006728E+00  6.94269630E-01  1.60356240E+00 -5.52135690E-01 -2.22312060E-01
 -2.22312060E-01  1.45669066E+01 -1.46033512E+01 -1.46033512E+01  9.77808618E+00
 -1.06035564E+01 -4.64304204E+00  3.49868160E-01  7.12491930E-01  7.12491930E-01
  3.44401470E-01  3.88134990E-01  3.88134990E-01 -1.27556100E-01  4.61024190E-01
  4.61024190E-01 -4.84713180E-01  1.16804943E+00  1.07438681E+01 -1.04741780E+01
 -9.40817349E+00  5.35006728E+00  7.23425310E-01  2.01356415E+00  1.02044880E+00
 -3.15245790E-01 -3.15245790E-01  2.47823280E-01 -7.74447750E-01 -7.74447750E-01
  1.46762404E+01 -1.49204192E+01 -1.49204192E+01  9.77808618E+00 -1.06035564E+01
 -7.57501011E+00  4.95464337E+00 -7.08847470E-01  1.83498561E+00  6.65842842E+00
  7.83558900E-02 -4.44259674E+00  1.16987166E+00  1.16987166E+00  1.16987166E+00
 -1.23200970E+01  7.47478746E+00  1.08841798E+01 -1.03484442E+01 -7.57501011E+00
  4.95464337E+00 -4.59201960E-01  1.27191654E+00  1.27191654E+00  1.08841798E+01
 -1.03484442E+01 -7.57501011E+00  4.95464337E+00 -7.08847470E-01  1.83498561E+00
  6.65842842E+00  7.83558900E-02 -4.44259674E+00  1.16987166E+00  1.16987166E+00
  1.16987166E+00 -1.23200970E+01  7.47478746E+00  1.08841798E+01 -1.03484442E+01
 -7.57501011E+00  4.95464337E+00 -5.01113250E-01  2.04636429E+00 -9.11115000E-02
  6.17735970E-01  6.17735970E-01 -2.57845545E+00 -2.98481274E+00  3.75743826E+00
 -6.22838214E+00  6.21744876E+00  2.51467740E+00 -4.73962023E+00  2.86454556E+00
 -2.06640882E+00  2.58209991E+00 -3.59343756E+00  2.63676681E+00 -4.34966301E+00
  3.09779100E+00  2.26503189E+00  1.08841798E+01 -1.03484442E+01 -7.57501011E+00
  4.95464337E+00 -4.59201960E-01  1.27191654E+00  1.27191654E+00  1.08841798E+01
 -1.03484442E+01 -8.43692490E+00  4.21846245E+00  4.21846245E+00
%FLAG ATOMIC_NUMBER                                                             
%FORMAT(10I8)                                                                   
       1       6       1       1       6       8       7       1       6       1
       1       6       8       7       1       6       1       6       1       1
       6       6       1       6       1       6       8       1       6       1
       6       1       6       8       7       1       6       1       6       1
       1       6       8       8       6       8       7       6       1       1
       6       1       1       6       1       1       6       1       6       8
       7       1       6       1       6       1       1       6       1       1
       6       8       8       6       8       7       1       6       1       6
       1       6       1       1       1       8       1       6       8       7
       1       6       1       1       6       8       7       1       6       1
       6       1       6       1       1       1       8       1       6       8
       7       1       6       1       6       1       1       6       6       1
       7       1       6       6       1       6       1       6       1       6
       1       6       6       8       7       1       6       1       1       6
       8       7       1       1
%FLAG MASS                                                                      
%FORMAT(5E16.8)                                                                 
  1.00800000E+00  1.20100000E+01  1.00800000E+00  1.00800000E+00  1.20100000E+01
  1.60000000E+01  1.40100000E+01  1.00800000E+00  1.20100000E+01  1.00800000E+00
  1.00800000E+00  1.20100000E+01  1.60000000E+01  1.40100000E+01  1.00800000E+00
  1.20100000E+01  1.00800000E+00  1.20100000E+01  1.00800000E+00  1.00800000E+00
  1.20100000E+01  1.20100000E+01  1.00800000E+00  1.20100000E+01  1.00800000E+00
  1.20100000E+01  1.60000000E+01  1.00800000E+00  1.20100000E+01  1.00800000E+00
  1.20100000E+01  1.00800000E+00  1.20100000E+01  1.60000000E+01  1.40100000E+01
  1.00800000E+00  1.20100000E+01  1.00800000E+00  1.20100000E+01  1.00800000E+00
  1.00800000E+00  1.20100000E+01  1.60000000E+01  1.60000000E+01  1.20100000E+01
  1.60000000E+01  1.40100000E+01  1.20100000E+01  1.00800000E+00  1.00800000E+00
  1.20100000E+01  1.00800000E+00  1.00800000E+00  1.20100000E+01  1.00800000E+00
  1.00800000E+00  1.20100000E+01  1.00800000E+00  1.20100000E+01  1.60000000E+01
  1.40100000E+01  1.00800000E+00  1.20100000E+01  1.00800000E+00  1.20100000E+01
  1.00800000E+00  1.00800000E+00  1.20100000E+01  1.00800000E+00  1.00800000E+00
  1.20100000E+01  1.60000000E+01  1.60000000E+01  1.20100000E+01  1.60000000E+01
  1.40100000E+01  1.00800000E+00  1.20100000E+01  1.00800000E+00  1.20100000E+01
  1.00800000E+00  1.20100000E+01  1.00800000E+00  1.00800000E+00  1.00800000E+00
  1.60000000E+01  1.00800000E+00  1.20100000E+01  1.60000000E+01  1.40100000E+01
  1.00800000E+00  1.20100000E+01  1.00800000E+00  1.00800000E+00  1.20100000E+01
  1.60000000E+01  1.40100000E+01  1.00800000E+00  1.20100000E+01  1.00800000E+00
  1.20100000E+01  1.00800000E+00  1.20100000E+01  1.00800000E+00  1.00800000E+00
  1.00800000E+00  1.60000000E+01  1.00800000E+00  1.20100000E+01  1.60000000E+01
  1.40100000E+01  1.00800000E+00  1.20100000E+01  1.00800000E+00  1.20100000E+01
  1.00800000E+00  1.00800000E+00  1.20100000E+01  1.20100000E+01  1.00800000E+00
  1.40100000E+01  1.00800000E+00  1.20100000E+01  1.20100000E+01  1.00800000E+00
  1.20100000E+01  1.00800000E+00  1.20100000E+01  1.00800000E+00  1.20100000E+01
  1.00800000E+00  1.20100000E+01  1.20100000E+01  1.60000000E+01  1.40100000E+01
  1.00800000E+00  1.20100000E+01  1.00800000E+00  1.00800000E+00  1.20100000E+01
  1.60000000E+01  1.40100000E+01  1.00800000E+00  1.00800000E+00
%FLAG ATOM_TYPE_INDEX                                                           
%FORMAT(10I8)                                                                   
       1       2       1       1       3       4       5       6       2       7
       7       3       4       5       6       2       7       2       1       1
       3       3       8       3       8       3       9      10       3       8
       3       8       3       4       5       6       2       7       2       1
       1       3       4       4       3       4       5       2       7       7
       2       1       1       2       1       1       2       7       3       4
       5       6       2       7       2       1       1       2       1       1
       3       4       4       3       4       5       6       2       7       2
       7       2       1       1       1       9      10       3       4       5
       6       2       7       7       3       4       5       6       2       7
       2       7       2       1       1       1       9      10       3       4
       5       6       2       7       2       1       1       3       3      11
       5       6       3       3       8       3       8       3       8       3
       8       3       3       4       5       6       2       7       7       3
       4       5       6       6
%FLAG NUMBER_EXCLUDED_ATOMS                                                     
%FORMAT(10I8)                                                                   
       6       7       4       3       7       3       7       4       7       4
       3       7       3      10       4      12       7      12       5       4
      10       8       4       7       3       6       4       1       3       2
       1       1       7       3      10       4      12       7       8       5
       4       3       1       1      10       3      14      11       6       5
       8       5       4       7       4       3       6       3       7       3
      10       4      13       7      11       6       5       6       4       3
       2       1       1       7       3      10       4      14       7      10
       7       6       3       2       1       2       1       7       3       7
       4       7       4       3       7       3      10       4      14       7
      10       7       6       3       2       1       2       1       7       3
      10       4      12       7      12       5       4      11       7       4
       7       3       8       7       4       6       3       4       3       2
       1       1       7       3       7       4       7       4       3       4
       3       2       1       1
%FLAG NONBONDED_PARM_INDEX                                                      
%FORMAT(10I8)                                                                   
       1       2       4       7      11      16      22      29      37      46
      56       2       3       5       8      12      17      23      30      38
      47      57       4       5       6       9      13      18      24      31
      39      48      58       7       8       9      10      14      19      25
      32      40      49      59      11      12      13      14      15      20
      26      33      41      50      60      16      17      18      19      20
      21      27      34      42      51      61      22      23      24      25
      26      27      28      35      43      52      62      29      30      31
      32      33      34      35      36      44      53      63      37      38
      39      40      41      42      43      44      45      54      64      46
      47      48      49      50      51      52      53      54      55      65
      56      57      58      59      60      61      62      63      64      65
      66
%FLAG RESIDUE_LABEL                                                             
%FORMAT(20a4)                                                                   
ACE GLY TYR ASP PRO GLU THR GLY THR TRP GLY NHE 
%FLAG RESIDUE_POINTER                                                           
%FORMAT(10I8)                                                                   
       1       7      14      35      47      61      76      90      97     111
     135     142
%FLAG BOND_FORCE_CONSTANT                                                       
%FORMAT(5E16.8)                                                                 
  5.70000000E+02  4.90000000E+02  3.40000000E+02  3.17000000E+02  3.40000000E+02
  3.17000000E+02  4.34000000E+02  3.37000000E+02  3.67000000E+02  4.69000000E+02
  5.53000000E+02  4.50000000E+02  4.69000000E+02  3.17000000E+02  3.10000000E+02
  6.56000000E+02  3.40000000E+02  3.17000000E+02  3.10000000E+02  3.10000000E+02
  3.40000000E+02  3.37000000E+02  3.10000000E+02  3.40000000E+02  3.10000000E+02
  3.20000000E+02  3.10000000E+02  4.69000000E+02  4.69000000E+02  4.47000000E+02
  4.34000000E+02  4.28000000E+02  3.67000000E+02  4.27000000E+02  5.46000000E+02
  3.88000000E+02  3.17000000E+02
%FLAG BOND_EQUIL_VALUE                                                          
%FORMAT(5E16.8)                                                                 
  1.22900000E+00  1.33500000E+00  1.09000000E+00  1.52200000E+00  1.09000000E+00
  1.52200000E+00  1.01000000E+00  1.44900000E+00  1.08000000E+00  1.40000000E+00
  9.60000000E-01  1.36400000E+00  1.40900000E+00  1.51000000E+00  1.52600000E+00
  1.25000000E+00  1.09000000E+00  1.52200000E+00  1.52600000E+00  1.52600000E+00
  1.09000000E+00  1.44900000E+00  1.52600000E+00  1.09000000E+00  1.52600000E+00
  1.41000000E+00  1.52600000E+00  1.40400000E+00  1.40000000E+00  1.41900000E+00
  1.01000000E+00  1.38000000E+00  1.08000000E+00  1.38100000E+00  1.35200000E+00
  1.45900000E+00  1.49500000E+00
%FLAG ANGLE_FORCE_CONSTANT                                                      
%FORMAT(5E16.8)                                                                 
  8.00000000E+01  5.00000000E+01  5.00000000E+01  5.00000000E+01  3.50000000E+01
  8.00000000E+01  7.00000000E+01  5.00000000E+01  3.50000000E+01  8.00000000E+01
  7.00000000E+01  5.00000000E+01  5.00000000E+01  6.30000000E+01  5.00000000E+01
  7.00000000E+01  5.00000000E+01  5.00000000E+01  6.30000000E+01  6.30000000E+01
  6.30000000E+01  5.00000000E+01  6.30000000E+01  7.00000000E+01  5.00000000E+01
  5.00000000E+01  6.30000000E+01  8.00000000E+01  5.00000000E+01  8.00000000E+01
  5.00000000E+01  3.50000000E+01  6.30000000E+01  7.00000000E+01  5.00000000E+01
  5.00000000E+01  6.30000000E+01  8.00000000E+01  5.00000000E+01  4.00000000E+01
  5.00000000E+01  3.50000000E+01  5.00000000E+01  4.00000000E+01  5.00000000E+01
  8.00000000E+01  5.00000000E+01  6.30000000E+01  4.00000000E+01  5.00000000E+01
  5.00000000E+01  5.00000000E+01  6.30000000E+01  5.00000000E+01  5.50000000E+01
  5.00000000E+01  5.00000000E+01  4.00000000E+01  5.00000000E+01  8.00000000E+01
  5.00000000E+01  6.30000000E+01  6.30000000E+01  5.00000000E+01  6.30000000E+01
  6.30000000E+01  5.00000000E+01  7.00000000E+01  7.00000000E+01  5.00000000E+01
  6.30000000E+01  5.00000000E+01  7.00000000E+01  5.00000000E+01  7.00000000E+01
  6.30000000E+01  6.30000000E+01  5.00000000E+01  7.00000000E+01  7.00000000E+01
  6.30000000E+01  3.50000000E+01
%FLAG ANGLE_EQUIL_VALUE                                                         
%FORMAT(5E16.8)                                                                 
  2.14501057E+00  2.09439600E+00  2.12755727E+00  1.91113635E+00  1.91113635E+00
  2.10137732E+00  2.03505478E+00  1.91113635E+00  1.91113635E+00  2.10137732E+00
  2.03505478E+00  2.06018753E+00  1.91113635E+00  1.92160833E+00  2.09439600E+00
  2.09439600E+00  1.97222290E+00  2.09439600E+00  2.09439600E+00  2.09439600E+00
  2.09439600E+00  1.91113635E+00  1.93906163E+00  2.09439600E+00  1.91113635E+00
  1.91113635E+00  1.98967620E+00  1.91462701E+00  2.12755727E+00  2.19911580E+00
  1.91113635E+00  1.91113635E+00  1.93906163E+00  2.04203610E+00  1.91113635E+00
  1.91113635E+00  1.93906163E+00  1.91462701E+00  1.91113635E+00  1.91113635E+00
  1.91113635E+00  1.91113635E+00  2.05948940E+00  1.91113635E+00  1.91113635E+00
  1.91462701E+00  1.91113635E+00  1.93906163E+00  1.91113635E+00  1.91113635E+00
  1.91113635E+00  1.91113635E+00  1.93906163E+00  1.91113635E+00  1.89368305E+00
  1.91113635E+00  1.91113635E+00  1.91113635E+00  1.91113635E+00  1.91462701E+00
  2.09439600E+00  2.09439600E+00  2.14151991E+00  2.09439600E+00  2.09439600E+00
  2.02807346E+00  2.14850123E+00  2.31779824E+00  1.82212452E+00  2.09439600E+00
  1.85703112E+00  2.09439600E+00  1.94778828E+00  2.09439600E+00  1.89717371E+00
  1.89891904E+00  2.35445017E+00  1.91113635E+00  2.18166250E+00  2.24449438E+00
  2.01760148E+00  2.09439600E+00
%FLAG DIHEDRAL_FORCE_CONSTANT                                                   
%FORMAT(5E16.8)                                                                 
  2.00000000E+00  2.50000000E+00  0.00000000E+00  0.00000000E+00  0.00000000E+00
  0.00000000E+00  8.00000000E-01  8.00000000E-02  0.00000000E+00  0.00000000E+00
  0.00000000E+00  3.62500000E+00  8.83000000E-01  6.50000000E-02  5.50000000E-02
  4.69000000E-01  1.92000000E-01  1.20000000E-02  1.55555556E-01  6.90000000E-02
  4.80000000E-02  1.20000000E-02  2.90000000E-01  7.00000000E-03  2.00000000E+00
  4.00000000E-01  4.24000000E-01  4.59000000E-01  5.80000000E-02  1.54000000E-01
  7.69000000E-01  3.10000000E-02  2.15400000E+00  6.47000000E-01  8.90000000E-02
  1.50000000E-01  1.60000000E-01  2.00000000E-01  2.50000000E-01  1.80000000E-01
  4.21000000E-01  3.93000000E-01  1.44000000E-01  1.45000000E-01  3.90000000E-01
  6.40000000E-02  1.36700000E+00  2.22000000E-01  6.08000000E-01  5.60000000E-02
  1.00000000E-01  1.84000000E-01  7.80000000E-02  6.97000000E-01  1.19000000E-01
  3.15000000E-01  1.56000000E-01  2.50000000E-01  4.06000000E-01  2.89000000E-01
  1.48000000E-01  1.12000000E-01  6.43000000E-01  7.90000000E-02  2.36000000E-01
  4.80000000E-02  1.66666667E-01  6.00000000E-03  2.51000000E-01  1.30000000E-02
  3.37000000E-01  2.16000000E-01  1.00000000E-03  6.74000000E-01  6.00000000E-03
  9.50000000E-02  3.00000000E+00  3.50000000E+00  1.52500000E+00  6.52500000E+00
  1.50000000E+00  1.67500000E+00  1.70000000E-02  3.53000000E-01  2.34000000E-01
  7.40000000E-02  3.65000000E-01  4.08000000E-01  8.19000000E-01  9.50000000E-02
  7.90000000E-02  3.13000000E-01  3.10000000E-02  1.05000000E+01  1.10000000E+00
  1.00000000E+00  0.00000000E+00
%FLAG DIHEDRAL_PERIODICITY                                                      
%FORMAT(5E16.8)                                                                 
  1.00000000E+00  2.00000000E+00  2.00000000E+00  1.00000000E+00  3.00000000E+00
  4.00000000E+00  1.00000000E+00  3.00000000E+00  3.00000000E+00  1.00000000E+00
  2.00000000E+00  2.00000000E+00  2.00000000E+00  4.00000000E+00  1.00000000E+00
  2.00000000E+00  3.00000000E+00  4.00000000E+00  3.00000000E+00  2.00000000E+00
  4.00000000E+00  1.00000000E+00  2.00000000E+00  4.00000000E+00  2.00000000E+00
  3.00000000E+00  1.00000000E+00  2.00000000E+00  3.00000000E+00  4.00000000E+00
  2.00000000E+00  4.00000000E+00  1.00000000E+00  2.00000000E+00  4.00000000E+00
  3.00000000E+00  3.00000000E+00  1.00000000E+00  2.00000000E+00  3.00000000E+00
  1.00000000E+00  2.00000000E+00  3.00000000E+00  4.00000000E+00  2.00000000E+00
  4.00000000E+00  1.00000000E+00  2.00000000E+00  3.00000000E+00  4.00000000E+00
  1.00000000E+00  2.00000000E+00  4.00000000E+00  1.00000000E+00  2.00000000E+00
  3.00000000E+00  4.00000000E+00  1.00000000E+00  1.00000000E+00  2.00000000E+00
  3.00000000E+00  4.00000000E+00  1.00000000E+00  2.00000000E+00  3.00000000E+00
  4.00000000E+00  3.00000000E+00  1.00000000E+00  2.00000000E+00  4.00000000E+00
  1.00000000E+00  2.00000000E+00  4.00000000E+00  1.00000000E+00  2.00000000E+00
  4.00000000E+00  2.00000000E+00  2.00000000E+00  2.00000000E+00  2.00000000E+00
  2.00000000E+00  2.00000000E+00  1.00000000E+00  2.00000000E+00  3.00000000E+00
  4.00000000E+00  1.00000000E+00  2.00000000E+00  3.00000000E+00  4.00000000E+00
  1.00000000E+00  2.00000000E+00  4.00000000E+00  2.00000000E+00  2.00000000E+00
  2.00000000E+00  2.00000000E+00
%FLAG DIHEDRAL_PHASE                                                            
%FORMAT(5E16.8)                                                                 
  0.00000000E+00  3.14159400E+00  0.00000000E+00  0.00000000E+00  0.00000000E+00
  0.00000000E+00  0.00000000E+00  3.14159400E+00  3.14159400E+00  3.14159400E+00
  3.14159400E+00  3.14159400E+00  3.14159400E+00  0.00000000E+00  0.00000000E+00
  3.14159400E+00  0.00000000E+00  3.14159400E+00  0.00000000E+00  3.14159400E+00
  3.14159400E+00  3.14159400E+00  3.14159400E+00  3.14159400E+00  0.00000000E+00
  0.00000000E+00  0.00000000E+00  3.14159400E+00  0.00000000E+00  0.00000000E+00
  3.14159400E+00  3.14159400E+00  3.14159400E+00  3.14159400E+00  0.00000000E+00
  0.00000000E+00  0.00000000E+00  3.14159400E+00  3.14159400E+00  0.00000000E+00
  3.14159400E+00  3.14159400E+00  0.00000000E+00  0.00000000E+00  3.14159400E+00
  0.00000000E+00  3.14159400E+00  3.14159400E+00  3.14159400E+00  3.14159400E+00
  3.14159400E+00  3.14159400E+00  0.00000000E+00  3.14159400E+00  3.14159400E+00
  0.00000000E+00  0.00000000E+00  0.00000000E+00  3.14159400E+00  3.14159400E+00
  0.00000000E+00  0.00000000E+00  0.00000000E+00  3.14159400E+00  0.00000000E+00
  0.00000000E+00  0.00000000E+00  3.14159400E+00  0.00000000E+00  0.00000000E+00
  0.00000000E+00  3.14159400E+00  3.14159400E+00  0.00000000E+00  0.00000000E+00
  0.00000000E+00  3.14159400E+00  3.14159400E+00  3.14159400E+00  3.14159400E+00
  3.14159400E+00  3.14159400E+00  3.14159400E+00  3.14159400E+00  0.00000000E+00
  0.00000000E+00  0.00000000E+00  0.00000000E+00  0.00000000E+00  3.14159400E+00
  0.00000000E+00  3.14159400E+00  0.00000000E+00  3.14159400E+00  3.14159400E+00
  3.14159400E+00  3.14159400E+00
%FLAG SCEE_SCALE_FACTOR                                                         
%FORMAT(5E16.8)                                                                 
  1.20000000E+00  1.20000000E+00  1.20000000E+00  1.20000000E+00  1.20000000E+00
  1.20000000E+00  1.20000000E+00  1.20000000E+00  1.20000000E+00  1.20000000E+00
  1.20000000E+00  1.20000000E+00  1.20000000E+00  1.20000000E+00  1.20000000E+00
  1.20000000E+00  1.20000000E+00  1.20000000E+00  1.20000000E+00  1.20000000E+00
  1.20000000E+00  1.20000000E+00  1.20000000E+00  1.20000000E+00  1.20000000E+00
  1.20000000E+00  1.20000000E+00  1.20000000E+00  1.20000000E+00  1.20000000E+00
  1.20000000E+00  1.20000000E+00  1.20000000E+00  1.20000000E+00  1.20000000E+00
  1.20000000E+00  1.20000000E+00  1.20000000E+00  1.20000000E+00  1.20000000E+00
  1.20000000E+00  1.20000000E+00  1.20000000E+00  1.20000000E+00  1.20000000E+00
  1.20000000E+00  1.20000000E+00  1.20000000E+00  1.20000000E+00  1.20000000E+00
  1.20000000E+00  1.20000000E+00  1.20000000E+00  1.20000000E+00  1.20000000E+00
  1.20000000E+00  1.20000000E+00  1.20000000E+00  1.20000000E+00  1.20000000E+00
  1.20000000E+00  1.20000000E+00  1.20000000E+00  1.20000000E+00  1.20000000E+00
  1.20000000E+00  1.20000000E+00  1.20000000E+00  1.20000000E+00  1.20000000E+00
  1.20000000E+00  1.20000000E+00  1.20000000E+00  1.20000000E+00  1.20000000E+00
  1.20000000E+00  1.20000000E+00  1.20000000E+00  1.20000000E+00  1.20000000E+00
  1.20000000E+00  1.20000000E+00  1.20000000E+00  1.20000000E+00  1.20000000E+00
  1.20000000E+00  1.20000000E+00  1.20000000E+00  1.20000000E+00  1.20000000E+00
  1.20000000E+00  1.20000000E+00  1.20000000E+00  0.00000000E+00  0.00000000E+00
  0.00000000E+00  0.00000000E+00
%FLAG SCNB_SCALE_FACTOR                                                         
%FORMAT(5E16.8)                                                                 
  2.00000000E+00  2.00000000E+00  2.00000000E+00  2.00000000E+00  2.00000000E+00
  2.00000000E+00  2.00000000E+00  2.00000000E+00  2.00000000E+00  2.00000000E+00
  2.00000000E+00  2.00000000E+00  2.00000000E+00  2.00000000E+00  2.00000000E+00
  2.00000000E+00  2.00000000E+00  2.00000000E+00  2.00000000E+00  2.00000000E+00
  2.00000000E+00  2.00000000E+00  2.00000000E+00  2.00000000E+00  2.00000000E+00
  2.00000000E+00  2.00000000E+00  2.00000000E+00  2.00000000E+00  2.00000000E+00
  2.00000000E+00  2.00000000E+00  2.00000000E+00  2.00000000E+00  2.00000000E+00
  2.00000000E+00  2.00000000E+00  2.00000000E+00  2.00000000E+00  2.00000000E+00
  2.00000000E+00  2.00000000E+00  2.00000000E+00  2.00000000E+00  2.00000000E+00
  2.00000000E+00  2.00000000E+00  2.00000000E+00  2.00000000E+00  2.00000000E+00
  2.00000000E+00  2.00000000E+00  2.00000000E+00  2.00000000E+00  2.00000000E+00
  2.00000000E+00  2.00000000E+00  2.00000000E+00  2.00000000E+00  2.00000000E+00
  2.00000000E+00  2.00000000E+00  2.00000000E+00  2.00000000E+00  2.00000000E+00
  2.00000000E+00  2.00000000E+00  2.00000000E+00  2.00000000E+00  2.00000000E+00
  2.00000000E+00  2.00000000E+00  2.00000000E+00  2.00000000E+00  2.00000000E+00
  2.00000000E+00  2.00000000E+00  2.00000000E+00  2.00000000E+00  2.00000000E+00
  2.00000000E+00  2.00000000E+00  2.00000000E+00  2.00000000E+00  2.00000000E+00
  2.00000000E+00  2.00000000E+00  2.00000000E+00  2.00000000E+00  2.00000000E+00
  2.00000000E+00  2.00000000E+00  2.00000000E+00  0.00000000E+00  0.00000000E+00
  0.00000000E+00  0.00000000E+00
%FLAG SOLTY                                                                     
%FORMAT(5E16.8)                                                                 
  0.00000000E+00  0.00000000E+00  0.00000000E+00  0.00000000E+00  0.00000000E+00
  0.00000000E+00  0.00000000E+00  0.00000000E+00  0.00000000E+00  0.00000000E+00
  0.00000000E+00  0.00000000E+00  0.00000000E+00  0.00000000E+00  0.00000000E+00
  0.00000000E+00  0.00000000E+00  0.00000000E+00  0.00000000E+00  0.00000000E+00
  0.00000000E+00  0.00000000E+00
%FLAG LENNARD_JONES_ACOEF                                                       
%FORMAT(5E16.8)                                                                 
  7.51607703E+03  9.71708117E+04  1.04308023E+06  8.61541883E+04  9.24822270E+05
  8.19971662E+05  5.44261042E+04  6.47841731E+05  5.74393458E+05  3.79876399E+05
  8.96776989E+04  9.95480466E+05  8.82619071E+05  6.06829342E+05  9.44293233E+05
  1.07193646E+02  2.56678134E+03  2.27577561E+03  1.02595236E+03  2.12601181E+03
  1.39982777E-01  4.98586848E+03  6.78771368E+04  6.01816484E+04  3.69471530E+04
  6.20665997E+04  5.94667300E+01  3.25969625E+03  6.55825601E+03  8.59947003E+04
  7.62451550E+04  4.77908183E+04  7.91627154E+04  8.90987508E+01  4.33325458E+03
  5.71629601E+03  6.82786631E+04  7.91544157E+05  7.01803794E+05  4.71003287E+05
  7.44975864E+05  1.40467023E+03  4.66922514E+04  6.00750218E+04  5.81803229E+05
  0.00000000E+00  0.00000000E+00  0.00000000E+00  0.00000000E+00  0.00000000E+00
  0.00000000E+00  0.00000000E+00  0.00000000E+00  0.00000000E+00  0.00000000E+00
  5.34045360E+03  7.18621074E+04  6.37148278E+04  3.93690817E+04  6.58473870E+04
  6.63368273E+01  3.50301067E+03  4.64559155E+03  4.96707306E+04  0.00000000E+00
  3.76169105E+03
%FLAG LENNARD_JONES_BCOEF                                                       
%FORMAT(5E16.8)                                                                 
  2.17257828E+01  1.26919150E+02  6.75612247E+02  1.12529845E+02  5.99015525E+02
  5.31102864E+02  1.11805549E+02  6.26720080E+02  5.55666448E+02  5.64885984E+02
  1.36131731E+02  7.36907417E+02  6.53361429E+02  6.77220874E+02  8.01323529E+02
  2.59456373E+00  2.06278363E+01  1.82891803E+01  1.53505284E+01  2.09604198E+01
  9.37598976E-02  1.76949863E+01  1.06076943E+02  9.40505980E+01  9.21192136E+01
  1.13252061E+02  1.93248820E+00  1.43076527E+01  2.00642027E+01  1.18043746E+02
  1.04660679E+02  1.03580945E+02  1.26451907E+02  2.33864085E+00  1.63092814E+01
  1.85196588E+01  1.25287818E+02  6.93079947E+02  6.14502845E+02  6.29300710E+02
  7.50714425E+02  1.79702257E+01  1.03606917E+02  1.16187983E+02  6.99746810E+02
  0.00000000E+00  0.00000000E+00  0.00000000E+00  0.00000000E+00  0.00000000E+00
  0.00000000E+00  0.00000000E+00  0.00000000E+00  0.00000000E+00  0.00000000E+00
  1.81057616E+01  1.07908863E+02  9.56748258E+01  9.40124296E+01  1.15327881E+02
  2.01792524E+00  1.46638650E+01  1.66953734E+01  1.05648788E+02  0.00000000E+00
  1.50233639E+01
%FLAG BONDS_INC_HYDROGEN                                                        
%FORMAT(10I8)                                                                   
       3       6       3       3       9       3       0       3       3      24
      27       5      24      30       5      18      21       7      90      93
       9      84      87       9      78      81      11      69      72       9
      63      66       9      51      54       3      51      57       3      45
      48       5      39      42       7     114     117      17     114     120
      17     108     111       5     102     105       7     168     171       5
     159     162       3     159     165       3     150     153       3     150
     156       3     141     144      21     141     147      21     201     204
      17     201     207      17     192     195      17     192     198      17
     186     189       5     180     183       7     255     258      11     243
     246       3     243     249       3     243     252       3     237     240
      24     231     234       5     225     228       7     273     276       5
     273     279       5     267     270       7     318     321      11     306
     309       3     306     312       3     306     315       3     300     303
      24     294     297       5     288     291       7     387     390       9
     381     384       9     375     378       9     369     372       9     360
     363      31     354     357      33     342     345       3     342     348
       3     336     339       5     330     333       7     408     411       5
     408     414       5     402     405       7     423     426       7     423
     429       7
%FLAG BONDS_WITHOUT_HYDROGEN                                                    
%FORMAT(10I8)                                                                   
      12      15       1      12      18       2       3      12       4      33
      36       1      33      39       2      24      33       6      18      24
       8      96      99       1      96     102       2      84      90      10
      75      78      12      75      84      13      69      75      13      63
      69      10      60      63      10      60      90      10      51      60
      14      45      51      15      45      96       6      39      45       8
     132     135       1     132     138       2     123     126      16     123
     129      16     114     123      18     108     114      19     108     132
       6     102     108       8     174     177       1     174     180       2
     168     174       6     159     168      15     150     159      20     141
     150      20     138     141      22     138     168       8     219     222
       1     219     225       2     210     213      16     210     216      16
     201     210      18     192     201      23     186     192      19     186
     219       6     180     186       8     261     264       1     261     267
       2     237     243      25     237     255      26     231     237      27
     231     261       6     225     231       8     282     285       1     282
     288       2     273     282       6     267     273       8     324     327
       1     324     330       2     300     306      25     300     318      26
     294     300      27     294     324       6     288     294       8     396
     399       1     396     402       2     387     393      28     381     387
      10     375     381      10     369     375      10     366     369      29
     366     393      30     360     366      32     354     360      34     351
     354      35     351     393      36     342     351      37     336     342
      15     336     396       6     330     336       8     417     420       1
     417     423       2     408     417       6     402     408       8
%FLAG ANGLES_INC_HYDROGEN                                                       
%FORMAT(10I8)                                                                   
      12      18      21       2       9       3      12       4       6       3
       9       5       6       3      12       4       0       3       6       5
       0       3       9       5       0       3      12       4      33      39
      42       2      30      24      33       8      27      24      30       9
      27      24      33       8      21      18      24      12      18      24
      27      13      18      24      30      13      96     102     105       2
      87      84      90      15      84      90      93      15      75      78
      81      17      75      84      87      18      72      69      75      18
      66      63      69      15      63      69      72      15      60      63
      66      15      60      90      93      15      57      51      60      22
      54      51      57       5      54      51      60      22      48      45
      51      25      48      45      96       8      45      51      54      26
      45      51      57      26      42      39      45      12      39      45
      48      13     120     114     123      31     117     114     120      32
     117     114     123      31     111     108     114      35     111     108
     132       8     108     114     117      36     108     114     120      36
     105     102     108      12     102     108     111      13     174     180
     183       2     171     168     174       8     165     159     168      26
     162     159     165       5     162     159     168      26     159     168
     171      25     156     150     159      39     153     150     156       5
     153     150     159      39     150     159     162      39     150     159
     165      39     147     141     150      41     144     141     147      42
     144     141     150      41     141     150     153      39     141     150
     156      39     138     141     144      45     138     141     147      45
     138     168     171      13     219     225     228       2     207     201
     210      31     204     201     207      32     204     201     210      31
     198     192     201      47     195     192     198      32     195     192
     201      47     192     201     204      47     192     201     207      47
     189     186     192      35     189     186     219       8     186     192
     195      36     186     192     198      36     183     180     186      12
     180     186     189      13     261     267     270       2     249     243
     252       5     246     243     249       5     246     243     252       5
     240     237     243      51     240     237     255      52     237     243
     246      54     237     243     249      54     237     243     252      54
     237     255     258      55     234     231     237      56     234     231
     261       8     231     237     240      57     228     225     231      12
     225     231     234      13     282     288     291       2     279     273
     282       8     276     273     279       9     276     273     282       8
     270     267     273      12     267     273     276      13     267     273
     279      13     324     330     333       2     312     306     315       5
     309     306     312       5     309     306     315       5     303     300
     306      51     303     300     318      52     300     306     309      54
     300     306     312      54     300     306     315      54     300     318
     321      55     297     294     300      56     297     294     324       8
     294     300     303      57     291     288     294      12     288     294
     297      13     396     402     405       2     390     387     393      61
     384     381     387      15     381     387     390      15     378     375
     381      15     375     381     384      15     372     369     375      15
     369     375     378      15     366     369     372      64     363     360
     366      67     357     354     360      70     354     360     363      72
     351     354     357      74     348     342     351      78     345     342
     348       5     345     342     351      78     339     336     342      25
     339     336     396       8     336     342     345      26     336     342
     348      26     333     330     336      12     330     336     339      13
     417     423     426       2     417     423     429       2     414     408
     417       8     411     408     414       9     411     408     417       8
     405     402     408      12     402     408     411      13     402     408
     414      13     426     423     429      82
%FLAG ANGLES_WITHOUT_HYDROGEN                                                   
%FORMAT(10I8)                                                                   
      15      12      18       1      12      18      24       3       3      12
      15       6       3      12      18       7      36      33      39       1
      33      39      45       3      24      33      36      10      24      33
      39      11      18      24      33      14      99      96     102       1
      96     102     108       3      78      75      84      16      75      84
      90      19      69      75      78      16      69      75      84      20
      63      60      90      21      63      69      75      19      60      63
      69      21      60      90      84      21      51      45      96      23
      51      60      63      24      51      60      90      24      45      51
      60      27      45      96      99      10      45      96     102      11
      39      45      51      28      39      45      96      14     135     132
     138       1     132     138     141      29     132     138     168       3
     126     123     129      30     114     108     132      33     114     123
     126      34     114     123     129      34     108     114     123      37
     108     132     135      10     108     132     138      11     102     108
     114      38     102     108     132      14     177     174     180       1
     174     180     186       3     168     174     177      10     168     174
     180      11     159     168     174      23     150     159     168      40
     141     138     168      43     141     150     159      44     138     141
     150      46     138     168     159      28     138     168     174      14
     222     219     225       1     219     225     231       3     213     210
     216      30     201     210     213      34     201     210     216      34
     192     186     219      33     192     201     210      48     186     192
     201      49     186     219     222      10     186     219     225      11
     180     186     192      38     180     186     219      14     264     261
     267       1     261     267     273       3     243     237     255      50
     237     231     261      53     231     237     243      58     231     237
     255      59     231     261     264      10     231     261     267      11
     225     231     237      60     225     231     261      14     285     282
     288       1     282     288     294       3     273     282     285      10
     273     282     288      11     267     273     282      14     327     324
     330       1     324     330     336       3     306     300     318      50
     300     294     324      53     294     300     306      58     294     300
     318      59     294     324     327      10     294     324     330      11
     288     294     300      60     288     294     324      14     399     396
     402       1     396     402     408       3     381     387     393      62
     375     381     387      21     369     366     393      63     369     375
     381      21     366     369     375      65     366     393     387      66
     360     366     369      68     360     366     393      69     354     351
     393      71     354     360     366      73     351     354     360      75
     351     393     366      76     351     393     387      77     342     336
     396      23     342     351     354      79     342     351     393      80
     336     342     351      81     336     396     399      10     336     396
     402      11     330     336     342      28     330     336     396      14
     420     417     423       1     408     417     420      10     408     417
     423      11     402     408     417      14
%FLAG DIHEDRALS_INC_HYDROGEN                                                    
%FORMAT(10I8)                                                                   
      15      12      18      21       1      15      12     -18      21       2
      12      18      24      27       3      12      18      24      30       3
       9       3      12      15       7       9       3     -12      15       3
       9       3     -12      15       8       9       3      12      18       3
       6       3      12      15       7       6       3     -12      15       3
       6       3     -12      15       8       6       3      12      18       3
       3      12      18      21       2       0       3      12      15       7
       0       3     -12      15       3       0       3     -12      15       8
       0       3      12      18       3      36      33      39      42       1
      36      33     -39      42       2      33      39      45      48       3
      30      24      33      36       4      30      24     -33      36       3
      30      24     -33      36       9      30      24      33      39       3
      27      24      33      36       4      27      24     -33      36       3
      27      24     -33      36       9      27      24      33      39       3
      24      33      39      42       2      21      18      24      27       3
      21      18      24      30       3      21      18      24      33       3
      99      96     102     105       1      99      96    -102     105       2
      96     102     108     111       3      87      84      90      93      12
      81      78      75      84       4      81      78     -75      84      13
      81      78     -75      84       5      81      78     -75      84      14
      78      75      84      87      12      75      84      90      93      12
      72      69      75      78      12      72      69      75      84      12
      69      75      78      81       4      69      75     -78      81      13
      69      75     -78      81       5      69      75     -78      81      14
      69      75      84      87      12      66      63      60      90      12
      66      63      69      72      12      66      63      69      75      12
      63      60      90      93      12      60      63      69      72      12
      60      90      84      87      12      57      51      45      96      19
      57      51      60      63       3      57      51      60      90       3
      54      51      45      96      19      54      51      60      63       3
      54      51      60      90       3      51      60      63      66      12
      51      60      90      93      12      48      45      51      54      19
      48      45      51      57      19      48      45      51      60      19
      48      45      96      99       4      48      45     -96      99       3
      48      45     -96      99       9      48      45      96     102       3
      45      96     102     105       2      42      39      45      48       3
      42      39      45      51       3      42      39      45      96       3
      39      45      51      54      19      39      45      51      57      19
     132     138     141     144       3     132     138     141     147       3
     132     138     168     171       3     120     114     108     132      19
     120     114     123     126       3     120     114     123     129       3
     117     114     108     132      19     117     114     123     126       3
     117     114     123     129       3     111     108     114     117      19
     111     108     114     120      19     111     108     114     123      19
     111     108     132     135       4     111     108    -132     135       3
     111     108    -132     135       9     111     108     132     138       3
     105     102     108     111       3     105     102     108     114       3
     105     102     108     132       3     102     108     114     117      19
     102     108     114     120      19     177     174     180     183       1
     177     174    -180     183       2     174     180     186     189       3
     171     168     174     177       4     171     168    -174     177       3
     171     168    -174     177       9     171     168     174     180       3
     168     174     180     183       2     165     159     168     171      19
     165     159     168     174      19     162     159     168     171      19
     162     159     168     174      19     156     150     159     162      36
     156     150     159     165      36     156     150     159     168      37
     153     150     159     162      36     153     150     159     165      36
     153     150     159     168      37     150     159     168     171      19
     147     141     138     168       3     147     141     150     153      19
     147     141     150     156      19     147     141     150     159      19
     144     141     138     168       3     144     141     150     153      19
     144     141     150     156      19     144     141     150     159      19
     141     138     168     171       3     141     150     159     162      37
     141     150     159     165      37     138     141     150     153      19
     138     141     150     156      19     138     168     159     162      19
     138     168     159     165      19     222     219     225     228       1
     222     219    -225     228       2     219     225     231     234       3
     207     201     210     213       3     207     201     210     216       3
     204     201     210     213       3     204     201     210     216       3
     198     192     186     219      19     198     192     201     204      36
     198     192     201     207      36     198     192     201     210      19
     195     192     186     219      19     195     192     201     204      36
     195     192     201     207      36     195     192     201     210      19
     189     186     192     195      19     189     186     192     198      19
     189     186     192     201      19     189     186     219     222       4
     189     186    -219     222       3     189     186    -219     222       9
     189     186     219     225       3     186     192     201     204      37
     186     192     201     207      37     186     219     225     228       2
     183     180     186     189       3     183     180     186     192       3
     183     180     186     219       3     180     186     192     195      19
     180     186     192     198      19     264     261     267     270       1
     264     261    -267     270       2     261     267     273     276       3
     261     267     273     279       3     252     243     237     255      58
     252     243    -237     255       5     249     243     237     255      58
     249     243    -237     255       5     246     243     237     255      58
     246     243    -237     255       5     243     237     255     258      63
     243     237    -255     258      64     243     237    -255     258      65
     243     237    -255     258      66     240     237     231     261      19
     240     237     243     246      19     240     237     243     249      19
     240     237     243     252      19     240     237     255     258      67
     234     231     237     240      19     234     231     237     243      19
     234     231     237     255      58     234     231    -237     255       5
     234     231     261     264       4     234     231    -261     264       3
     234     231    -261     264       9     234     231     261     267       3
     231     237     243     246      37     231     237     243     249      37
     231     237     243     252      37     231     237     255     258      68
     231     237    -255     258      69     231     237    -255     258      65
     231     237    -255     258      70     231     261     267     270       2
     228     225     231     234       3     228     225     231     237       3
     228     225     231     261       3     225     231     237     240      19
     285     282     288     291       1     285     282    -288     291       2
     282     288     294     297       3     279     273     282     285       4
     279     273    -282     285       3     279     273    -282     285       9
     279     273     282     288       3     276     273     282     285       4
     276     273    -282     285       3     276     273    -282     285       9
     276     273     282     288       3     273     282     288     291       2
     270     267     273     276       3     270     267     273     279       3
     270     267     273     282       3     327     324     330     333       1
     327     324    -330     333       2     324     330     336     339       3
     315     306     300     318      58     315     306    -300     318       5
     312     306     300     318      58     312     306    -300     318       5
     309     306     300     318      58     309     306    -300     318       5
     306     300     318     321      63     306     300    -318     321      64
     306     300    -318     321      65     306     300    -318     321      66
     303     300     294     324      19     303     300     306     309      19
     303     300     306     312      19     303     300     306     315      19
     303     300     318     321      67     297     294     300     303      19
     297     294     300     306      19     297     294     300     318      58
     297     294    -300     318       5     297     294     324     327       4
     297     294    -324     327       3     297     294    -324     327       9
     297     294     324     330       3     294     300     306     309      37
     294     300     306     312      37     294     300     306     315      37
     294     300     318     321      68     294     300    -318     321      69
     294     300    -318     321      65     294     300    -318     321      70
     294     324     330     333       2     291     288     294     297       3
     291     288     294     300       3     291     288     294     324       3
     288     294     300     303      19     399     396     402     405       1
     399     396    -402     405       2     396     402     408     411       3
     396     402     408     414       3     384     381     387     390      12
     384     381     387     393      12     378     375     381     384      12
     378     375     381     387      12     375     381     387     390      12
     372     369     366     393      12     372     369     375     378      12
     372     369     375     381      12     369     375     381     384      12
     366     369     375     378      12     366     393     387     390      78
     363     360     366     369      79     363     360     366     393      79
     360     366     369     372      12     357     354     351     393      80
     357     354     360     363      81     357     354     360     366      81
     351     354     360     363      81     351     393     387     390      78
     348     342     336     396      19     348     342     351     354       3
     348     342     351     393       3     345     342     336     396      19
     345     342     351     354       3     345     342     351     393       3
     342     351     354     357      80     339     336     342     345      19
     339     336     342     348      19     339     336     342     351      19
     339     336     396     399       4     339     336    -396     399       3
     339     336    -396     399       9     339     336     396     402       3
     336     396     402     405       2     333     330     336     339       3
     333     330     336     342       3     333     330     336     396       3
     330     336     342     345      19     330     336     342     348      19
     420     417     423     426       1     420     417    -423     426       2
     420     417     423     429       1     420     417    -423     429       2
     414     408     417     420       4     414     408    -417     420       3
     414     408    -417     420       9     414     408     417     423       3
     411     408     417     420       4     411     408    -417     420       3
     411     408    -417     420       9     411     408     417     423       3
     408     417     423     426       2     408     417     423     429       2
     405     402     408     411       3     405     402     408     414       3
     405     402     408     417       3      12      24     -18     -21      95
      60      84     -90     -93      95      75      90     -84     -87      95
      63      75     -69     -72      95      60      69     -63     -66      95
      33      42     -39     -45      95      96     105    -102    -108      95
     174     183    -180    -186      95     219     228    -225    -231      95
     261     270    -267    -273      95     282     291    -288    -294      95
     381     393    -387    -390      95     375     387    -381    -384      95
     369     381    -375    -378      95     366     375    -369    -372      95
     354     366    -360    -363      96     351     360    -354    -357      95
     324     333    -330    -336      95     396     405    -402    -408      95
     417     426    -423    -429      96
%FLAG DIHEDRALS_WITHOUT_HYDROGEN                                                
%FORMAT(10I8)                                                                   
      15      12      18      24       2      12      18      24      33       4
      12      18     -24      33       3      12      18     -24      33       5
      12      18     -24      33       6       3      12      18      24       2
      36      33      39      45       2      33      39      45      51       4
      33      39     -45      51       3      33      39     -45      51       5
      33      39     -45      51       6      33      39      45      96       4
      33      39     -45      96       3      33      39     -45      96       5
      33      39     -45      96       6      24      33      39      45       2
      18      24      33      36       3      18      24      33      39      10
      18      24     -33      39      11      18      24     -33      39       9
      18      24     -33      39       6      99      96     102     108       2
      96     102     108     114       4      96     102    -108     114       3
      96     102    -108     114       5      96     102    -108     114       6
      96     102     108     132       4      96     102    -108     132       3
      96     102    -108     132       5      96     102    -108     132       6
      78      75      84      90      12      69      63      60      90      12
      69      75     -84      90      12      63      60      90      84      12
      63      69      75      78      12      63      69     -75      84      12
      60      51      45      96      15      60      51     -45      96      16
      60      51     -45      96      17      60      51     -45      96      18
      60      63      69      75      12      60      90     -84      75      12
      51      45      96      99       3      51      45      96     102       4
      51      45     -96     102       3      51      45     -96     102       5
      51      45     -96     102       6      51      60      63      69      12
      51      60      90      84      12      45      51      60      63       4
      45      51     -60      63      20      45      51     -60      63       5
      45      51     -60      63      21      45      51      60      90       4
      45      51     -60      90      20      45      51     -60      90       5
      45      51     -60      90      21      45      96     102     108       2
      39      45      51      60      22      39      45     -51      60      23
      39      45     -51      60      17      39      45     -51      60      24
      39      45      96      99       3      39      45      96     102      10
      39      45     -96     102      11      39      45     -96     102       9
      39      45     -96     102       6     135     132     138     141       2
     135     132     138     168       2     132     138     141     150       1
     132     138    -141     150      25     132     138    -141     150      26
     132     138    -141     150       6     132     138     168     159       4
     132     138    -168     159       3     132     138    -168     159       5
     132     138    -168     159       6     132     138     168     174       4
     132     138    -168     174       3     132     138    -168     174       5
     132     138    -168     174       6     123     114     108     132      27
     123     114    -108     132      28     123     114    -108     132      29
     123     114    -108     132      30     114     108     132     135       3
     114     108     132     138       4     114     108    -132     138       3
     114     108    -132     138       5     114     108    -132     138       6
     108     114     123     126       4     108     114    -123     126      31
     108     114    -123     126       5     108     114    -123     126      32
     108     114     123     129       4     108     114    -123     129      31
     108     114    -123     129       5     108     114    -123     129      32
     108     132     138     141       2     108     132     138     168       2
     102     108     114     123      33     102     108    -114     123      34
     102     108    -114     123      29     102     108    -114     123      35
     102     108     132     135       3     102     108     132     138      10
     102     108    -132     138      11     102     108    -132     138       9
     102     108    -132     138       6     177     174     180     186       2
     174     180     186     192       4     174     180    -186     192       3
     174     180    -186     192       5     174     180    -186     192       6
     174     180     186     219       4     174     180    -186     219       3
     174     180    -186     219       5     174     180    -186     219       6
     168     174     180     186       2     159     168     174     177       3
     159     168     174     180       4     159     168    -174     180       3
     159     168    -174     180       5     159     168    -174     180       6
     150     141    -138     168       3     150     159     168     174      19
     141     138    -168     159       3     141     138     168     174       3
     141     150    -159     168      38     141     150    -159     168      39
     141     150    -159     168      40     138     141    -150     159      19
     138     168    -159     150      19     138     168     174     177       3
     138     168     174     180      10     138     168    -174     180      11
     138     168    -174     180       9     138     168    -174     180       6
     222     219     225     231       2     219     225     231     237       4
     219     225    -231     237       3     219     225    -231     237       5
     219     225    -231     237       6     219     225     231     261       4
     219     225    -231     261       3     219     225    -231     261       5
     219     225    -231     261       6     201     192     186     219      41
     201     192    -186     219      42     201     192    -186     219      43
     201     192    -186     219      44     192     186     219     222       3
     192     186     219     225       4     192     186    -219     225       3
     192     186    -219     225       5     192     186    -219     225       6
     192     201     210     213      45     192     201    -210     213      46
     192     201     210     216      45     192     201    -210     216      46
     186     192     201     210      47     186     192    -201     210      48
     186     192    -201     210      49     186     192    -201     210      50
     186     219     225     231       2     180     186     192     201      51
     180     186    -192     201      52     180     186    -192     201      43
     180     186    -192     201      53     180     186     219     222       3
     180     186     219     225      10     180     186    -219     225      11
     180     186    -219     225       9     180     186    -219     225       6
     264     261     267     273       2     261     267     273     282       4
     261     267    -273     282       3     261     267    -273     282       5
     261     267    -273     282       6     255     237     231     261      54
     255     237    -231     261      55     255     237    -231     261      56
     255     237    -231     261      57     243     237     231     261      59
     243     237    -231     261      60     243     237    -231     261      61
     243     237    -231     261      62     237     231     261     264       3
     237     231     261     267       4     237     231    -261     267       3
     237     231    -261     267       5     237     231    -261     267       6
     231     261     267     273       2     225     231     237     243      71
     225     231    -237     243      72     225     231    -237     243      61
     225     231    -237     243      73     225     231     237     255      74
     225     231    -237     255      75     225     231    -237     255      56
     225     231    -237     255      76     225     231     261     264       3
     225     231     261     267      10     225     231    -261     267      11
     225     231    -261     267       9     225     231    -261     267       6
     285     282     288     294       2     282     288     294     300       4
     282     288    -294     300       3     282     288    -294     300       5
     282     288    -294     300       6     282     288     294     324       4
     282     288    -294     324       3     282     288    -294     324       5
     282     288    -294     324       6     273     282     288     294       2
     267     273     282     285       3     267     273     282     288      10
     267     273    -282     288      11     267     273    -282     288       9
     267     273    -282     288       6     327     324     330     336       2
     324     330     336     342       4     324     330    -336     342       3
     324     330    -336     342       5     324     330    -336     342       6
     324     330     336     396       4     324     330    -336     396       3
     324     330    -336     396       5     324     330    -336     396       6
     318     300     294     324      54     318     300    -294     324      55
     318     300    -294     324      56     318     300    -294     324      57
     306     300     294     324      59     306     300    -294     324      60
     306     300    -294     324      61     306     300    -294     324      62
     300     294     324     327       3     300     294     324     330       4
     300     294    -324     330       3     300     294    -324     330       5
     300     294    -324     330       6     294     324     330     336       2
     288     294     300     306      71     288     294    -300     306      72
     288     294    -300     306      61     288     294    -300     306      73
     288     294     300     318      74     288     294    -300     318      75
     288     294    -300     318      56     288     294    -300     318      76
     288     294     324     327       3     288     294     324     330      10
     288     294    -324     330      11     288     294    -324     330       9
     288     294    -324     330       6     399     396     402     408       2
     396     402     408     417       4     396     402    -408     417       3
     396     402    -408     417       5     396     402    -408     417       6
     375     369     366     393      12     375     381    -387     393      12
     369     366     393     387      77     369     375    -381     387      12
     366     369     375     381      12     366     393    -387     381      78
     360     354    -351     393      80     360     366     369     375      12
     360     366     393     387      77     354     351    -393     366      82
     354     351     393     387      82     354     360     366     369      79
     354     360    -366     393      79     351     342     336     396      83
     351     342    -336     396      84     351     342    -336     396      85
     351     342    -336     396      86     351     354    -360     366      81
     351     393    -366     360      77     351     393     366     369      77
     351     393     387     381      78     342     336     396     399       3
     342     336     396     402       4     342     336    -396     402       3
     342     336    -396     402       5     342     336    -396     402       6
     342     351     354     360      80     342     351     393     366      82
     342     351     393     387      82     336     342     351     354       4
     336     342    -351     354       3     336     342    -351     354       5
     336     342    -351     354       6     336     342     351     393      87
     336     342    -351     393      88     336     342    -351     393      89
     336     342    -351     393      90     336     396     402     408       2
     330     336     342     351      91     330     336    -342     351      92
     330     336    -342     351      85     330     336    -342     351      93
     330     336     396     399       3     330     336     396     402      10
     330     336    -396     402      11     330     336    -396     402       9
     330     336    -396     402       6     402     408     417     420       3
     402     408     417     423      10     402     408    -417     423      11
     402     408    -417     423       9     402     408    -417     423       6
       3      18     -12     -15      94      24      39     -33     -36      94
      45     102     -96     -99      94      69      84     -75     -78      95
      63      90     -60     -51      95     108     138    -132    -135      94
     114     126    -123    -129      94     168     180    -174    -177      94
     132     141    -138    -168      96     186     225    -219    -222      94
     201     213    -210    -216      94     231     267    -261    -264      94
     273     288    -282    -285      94     294     330    -324    -327      94
     336     402    -396    -399      94     351     366    -393    -387      97
     360     369    -366    -393      97     393     342    -351    -354      95
     408     423    -417    -420      94
%FLAG EXCLUDED_ATOMS_LIST                                                       
%FORMAT(10I8)                                                                   
       2       3       4       5       6       7       3       4       5       6
       7       8       9       4       5       6       7       5       6       7
       6       7       8       9      10      11      12       7       8       9
       8       9      10      11      12      13      14       9      10      11
      12      10      11      12      13      14      15      16      11      12
      13      14      12      13      14      13      14      15      16      17
      18      33      14      15      16      15      16      17      18      19
      20      21      33      34      35      16      17      18      33      17
      18      19      20      21      22      31      33      34      35      36
      37      18      19      20      21      33      34      35      19      20
      21      22      23      24      29      31      32      33      34      35
      20      21      22      31      33      21      22      31      33      22
      23      24      25      26      29      30      31      32      33      23
      24      25      26      27      29      31      32      24      25      26
      31      25      26      27      28      29      30      31      26      27
      29      27      28      29      30      31      32      28      29      30
      31      29      30      31      32      31      32      32       0      34
      35      36      37      38      39      45      35      36      37      36
      37      38      39      40      41      42      45      46      47      37
      38      39      45      38      39      40      41      42      43      44
      45      46      47      48      57      39      40      41      42      45
      46      47      40      41      42      43      44      45      46      47
      41      42      43      44      45      42      43      44      45      43
      44      45      44       0      46      47      48      49      50      51
      54      57      58      59      47      48      57      48      49      50
      51      52      53      54      55      56      57      58      59      60
      61      49      50      51      52      53      54      55      56      57
      58      59      50      51      52      53      54      57      51      52
      53      54      57      52      53      54      55      56      57      58
      59      53      54      55      56      57      54      55      56      57
      55      56      57      58      59      60      61      56      57      58
      59      57      58      59      58      59      60      61      62      63
      59      60      61      60      61      62      63      64      65      74
      61      62      63      62      63      64      65      66      67      68
      74      75      76      63      64      65      74      64      65      66
      67      68      69      70      71      74      75      76      77      78
      65      66      67      68      74      75      76      66      67      68
      69      70      71      72      73      74      75      76      67      68
      69      70      71      74      68      69      70      71      74      69
      70      71      72      73      74      70      71      72      73      71
      72      73      72      73      73       0      75      76      77      78
      79      80      88      76      77      78      77      78      79      80
      81      82      86      88      89      90      78      79      80      88
      79      80      81      82      83      84      85      86      87      88
      89      90      91      92      80      81      82      86      88      89
      90      81      82      83      84      85      86      87      88      89
      90      82      83      84      85      86      87      88      83      84
      85      86      87      88      84      85      86      85      86      86
      87      88       0      89      90      91      92      93      94      95
      90      91      92      91      92      93      94      95      96      97
      92      93      94      95      93      94      95      96      97      98
      99      94      95      96      97      95      96      97      96      97
      98      99     100     101     109      97      98      99      98      99
     100     101     102     103     107     109     110     111      99     100
     101     109     100     101     102     103     104     105     106     107
     108     109     110     111     112     113     101     102     103     107
     109     110     111     102     103     104     105     106     107     108
     109     110     111     103     104     105     106     107     108     109
     104     105     106     107     108     109     105     106     107     106
     107     107     108     109       0     110     111     112     113     114
     115     133     111     112     113     112     113     114     115     116
     117     118     133     134     135     113     114     115     133     114
     115     116     117     118     119     132     133     134     135     136
     137     115     116     117     118     133     134     135     116     117
     118     119     120     121     123     130     132     133     134     135
     117     118     119     132     133     118     119     132     133     119
     120     121     122     123     124     128     130     131     132     133
     120     121     122     123     124     130     132     121     122     123
     132     122     123     124     125     126     130     132     123     124
     132     124     125     126     127     128     130     131     132     125
     126     127     128     129     130     132     126     127     128     132
     127     128     129     130     131     132     128     129     130     129
     130     131     132     130     131     132     131     132     132       0
     134     135     136     137     138     139     140     135     136     137
     136     137     138     139     140     141     142     137     138     139
     140     138     139     140     141     142     143     144     139     140
     141     142     140     141     142     141     142     143     144     142
     143     144     143     144     144       0
%FLAG HBOND_ACOEF                                                               
%FORMAT(5E16.8)                                                                 

%FLAG HBOND_BCOEF                                                               
%FORMAT(5E16.8)                                                                 

%FLAG HBCUT                                                                     
%FORMAT(5E16.8)                                                                 

%FLAG AMBER_ATOM_TYPE                                                           
%FORMAT(20a4)                                                                   
HC  CT  HC  HC  C   O   N   H   XC  H1  H1  C   O   N   H   XC  H1  CT  HC  HC  
CA  CA  HA  CA  HA  C   OH  HO  CA  HA  CA  HA  C   O   N   H   XC  H1  2C  HC  
HC  CO  O2  O2  C   O   N   CT  H1  H1  CT  HC  HC  CT  HC  HC  XC  H1  C   O   
N   H   XC  H1  2C  HC  HC  2C  HC  HC  CO  O2  O2  C   O   N   H   XC  H1  3C  
H1  CT  HC  HC  HC  OH  HO  C   O   N   H   XC  H1  H1  C   O   N   H   XC  H1  
3C  H1  CT  HC  HC  HC  OH  HO  C   O   N   H   XC  H1  CT  HC  HC  C*  CW  H4  
NA  H   CN  CA  HA  CA  HA  CA  HA  CA  HA  CB  C   O   N   H   XC  H1  H1  C   
O   N   H   H   
%FLAG TREE_CHAIN_CLASSIFICATION                                                 
%FORMAT(20a4)                                                                   
M   M   E   E   M   E   M   E   M   E   E   M   E   M   E   M   E   3   E   E   
B   B   E   B   E   B   S   E   S   E   S   E   M   E   M   E   M   E   3   E   
E   B   E   E   M   E   M   3   E   E   3   E   E   B   E   E   M   E   M   E   
M   E   M   E   3   E   E   3   E   E   B   E   E   M   E   M   E   M   E   3   
E   3   E   E   E   S   E   M   E   M   E   M   E   E   M   E   M   E   M   E   
3   E   3   E   E   E   S   E   M   E   M   E   M   E   3   E   E   B   B   E   
B   E   S   B   E   B   E   B   E   S   E   E   M   E   M   E   M   E   E   M   
E   M   E   E   
%FLAG JOIN_ARRAY                                                                
%FORMAT(10I8)                                                                   
       0       0       0       0       0       0       0       0       0       0
       0       0       0       0       0       0       0       0       0       0
       0       0       0       0       0       0       0       0       0       0
       0       0       0       0       0       0       0       0       0       0
       0       0       0       0       0       0       0       0       0       0
       0       0       0       0       0       0       0       0       0       0
       0       0       0       0       0       0       0       0       0       0
       0       0       0       0       0       0       0       0       0       0
       0       0       0       0       0       0       0       0       0       0
       0       0       0       0       0       0       0       0       0       0
       0       0       0       0       0       0       0       0       0       0
       0       0       0       0       0       0       0       0       0       0
       0       0       0       0       0       0       0       0       0       0
       0       0       0       0       0       0       0       0       0       0
       0       0       0       0
%FLAG IROTAT                                                                    
%FORMAT(10I8)                                                                   
       0       0       0       0       0       0       0       0       0       0
       0       0       0       0       0       0       0       0       0       0
       0       0       0       0       0       0       0       0       0       0
       0       0       0       0       0       0       0       0       0       0
       0       0       0       0       0       0       0       0       0       0
       0       0       0       0       0       0       0       0       0       0
       0       0       0       0       0       0       0       0       0       0
       0       0       0       0       0       0       0       0       0       0
       0       0       0       0       0       0       0       0       0       0
       0       0       0       0       0       0       0       0       0       0
       0       0       0       0       0       0       0       0       0       0
       0       0       0       0       0       0       0       0       0       0
       0       0       0       0       0       0       0       0       0       0
       0       0       0       0       0       0       0       0       0       0
       0       0       0       0
%FLAG RADIUS_SET                                                                
%FORMAT(1a80)                                                                   
H(N)-modified Bondi radii (mbondi2)                                             
%FLAG RADII                                                                     
%FORMAT(5E16.8)                                                                 
  1.20000000E+00  1.70000000E+00  1.20000000E+00  1.20000000E+00  1.70000000E+00
  1.50000000E+00  1.55000000E+00  1.30000000E+00  1.70000000E+00  1.20000000E+00
  1.20000000E+00  1.70000000E+00  1.50000000E+00  1.55000000E+00  1.30000000E+00
  1.70000000E+00  1.20000000E+00  1.70000000E+00  1.20000000E+00  1.20000000E+00
  1.70000000E+00  1.70000000E+00  1.20000000E+00  1.70000000E+00  1.20000000E+00
  1.70000000E+00  1.50000000E+00  1.20000000E+00  1.70000000E+00  1.20000000E+00
  1.70000000E+00  1.20000000E+00  1.70000000E+00  1.50000000E+00  1.55000000E+00
  1.30000000E+00  1.70000000E+00  1.20000000E+00  1.70000000E+00  1.20000000E+00
  1.20000000E+00  1.70000000E+00  1.50000000E+00  1.50000000E+00  1.70000000E+00
  1.50000000E+00  1.55000000E+00  1.70000000E+00  1.20000000E+00  1.20000000E+00
  1.70000000E+00  1.20000000E+00  1.20000000E+00  1.70000000E+00  1.20000000E+00
  1.20000000E+00  1.70000000E+00  1.20000000E+00  1.70000000E+00  1.50000000E+00
  1.55000000E+00  1.30000000E+00  1.70000000E+00  1.20000000E+00  1.70000000E+00
  1.20000000E+00  1.20000000E+00  1.70000000E+00  1.20000000E+00  1.20000000E+00
  1.70000000E+00  1.50000000E+00  1.50000000E+00  1.70000000E+00  1.50000000E+00
  1.55000000E+00  1.30000000E+00  1.70000000E+00  1.20000000E+00  1.70000000E+00
  1.20000000E+00  1.70000000E+00  1.20000000E+00  1.20000000E+00  1.20000000E+00
  1.50000000E+00  1.20000000E+00  1.70000000E+00  1.50000000E+00  1.55000000E+00
  1.30000000E+00  1.70000000E+00  1.20000000E+00  1.20000000E+00  1.70000000E+00
  1.50000000E+00  1.55000000E+00  1.30000000E+00  1.70000000E+00  1.20000000E+00
  1.70000000E+00  1.20000000E+00  1.70000000E+00  1.20000000E+00  1.20000000E+00
  1.20000000E+00  1.50000000E+00  1.20000000E+00  1.70000000E+00  1.50000000E+00
  1.55000000E+00  1.30000000E+00  1.70000000E+00  1.20000000E+00  1.70000000E+00
  1.20000000E+00  1.20000000E+00  1.70000000E+00  1.70000000E+00  1.20000000E+00
  1.55000000E+00  1.30000000E+00  1.70000000E+00  1.70000000E+00  1.20000000E+00
  1.70000000E+00  1.20000000E+00  1.70000000E+00  1.20000000E+00  1.70000000E+00
  1.20000000E+00  1.70000000E+00  1.70000000E+00  1.50000000E+00  1.55000000E+00
  1.30000000E+00  1.70000000E+00  1.20000000E+00  1.20000000E+00  1.70000000E+00
  1.50000000E+00  1.55000000E+00  1.30000000E+00  1.30000000E+00
%FLAG SCREEN                                                                    
%FORMAT(5E16.8)                                                                 
  8.50000000E-01  7.20000000E-01  8.50000000E-01  8.50000000E-01  7.20000000E-01
  8.50000000E-01  7.90000000E-01  8.50000000E-01  7.20000000E-01  8.50000000E-01
  8.50000000E-01  7.20000000E-01  8.50000000E-01  7.90000000E-01  8.50000000E-01
  7.20000000E-01  8.50000000E-01  7.20000000E-01  8.50000000E-01  8.50000000E-01
  7.20000000E-01  7.20000000E-01  8.50000000E-01  7.20000000E-01  8.50000000E-01
  7.20000000E-01  8.50000000E-01  8.50000000E-01  7.20000000E-01  8.50000000E-01
  7.20000000E-01  8.50000000E-01  7.20000000E-01  8.50000000E-01  7.90000000E-01
  8.50000000E-01  7.20000000E-01  8.50000000E-01  7.20000000E-01  8.50000000E-01
  8.50000000E-01  7.20000000E-01  8.50000000E-01  8.50000000E-01  7.20000000E-01
  8.50000000E-01  7.90000000E-01  7.20000000E-01  8.50000000E-01  8.50000000E-01
  7.20000000E-01  8.50000000E-01  8.50000000E-01  7.20000000E-01  8.50000000E-01
  8.50000000E-01  7.20000000E-01  8.50000000E-01  7.20000000E-01  8.50000000E-01
  7.90000000E-01  8.50000000E-01  7.20000000E-01  8.50000000E-01  7.20000000E-01
  8.50000000E-01  8.50000000E-01  7.20000000E-01  8.50000000E-01  8.50000000E-01
  7.20000000E-01  8.50000000E-01  8.50000000E-01  7.20000000E-01  8.50000000E-01
  7.90000000E-01  8.50000000E-01  7.20000000E-01  8.50000000E-01  7.20000000E-01
  8.50000000E-01  7.20000000E-01  8.50000000E-01  8.50000000E-01  8.50000000E-01
  8.50000000E-01  8.50000000E-01  7.20000000E-01  8.50000000E-01  7.90000000E-01
  8.50000000E-01  7.20000000E-01  8.50000000E-01  8.50000000E-01  7.20000000E-01
  8.50000000E-01  7.90000000E-01  8.50000000E-01  7.20000000E-01  8.50000000E-01
  7.20000000E-01  8.50000000E-01  7.20000000E-01  8.50000000E-01  8.50000000E-01
  8.50000000E-01  8.50000000E-01  8.50000000E-01  7.20000000E-01  8.50000000E-01
  7.90000000E-01  8.50000000E-01  7.20000000E-01  8.50000000E-01  7.20000000E-01
  8.50000000E-01  8.50000000E-01  7.20000000E-01  7.20000000E-01  8.50000000E-01
  7.90000000E-01  8.50000000E-01  7.20000000E-01  7.20000000E-01  8.50000000E-01
  7.20000000E-01  8.50000000E-01  7.20000000E-01  8.50000000E-01  7.20000000E-01
  8.50000000E-01  7.20000000E-01  7.20000000E-01  8.50000000E-01  7.90000000E-01
  8.50000000E-01  7.20000000E-01  8.50000000E-01  8.50000000E-01  7.20000000E-01
  8.50000000E-01  7.90000000E-01  8.50000000E-01  8.50000000E-01
%FLAG IPOL                                                                      
%FORMAT(1I8)                                                                    
       0
%FLAG CMAP_COUNT                                                                
%FORMAT(2I8)                                                                    
      10       6                                                                
%FLAG CMAP_RESOLUTION                                                           
%FORMAT(20I4)                                                                   
  24  24  24  24  24  24
%FLAG CMAP_PARAMETER_01                                                         
%COMMENT  Gly CMAP                                                              
%FORMAT(8F9.5)                                                                  
  0.82366  1.09817  1.13106  1.38658  2.11377  3.63194  5.20835  4.52792
  4.24857  3.42100  2.57125  2.21561  4.26659  2.21561  2.57125  3.42110
  4.24858  4.52792  4.29107  3.63184  2.03731  1.32036  1.12797  1.09814
  1.01976  0.89767  0.89484  1.21525  1.97095  3.70570  4.38855  4.65256
  4.43948  3.89754  4.21954  2.92219  1.83300  1.61528  2.13407  3.13273
  4.03304  4.37836  4.21500  3.54162  2.14871  1.44646  1.20387  1.08264
  0.94294  0.79652  0.83328  1.24136  2.06053  3.43883  4.17385  4.53101
  4.43115  4.03641  3.71837  2.02965  1.28863  1.21833  1.89263  2.85593
  4.80291  4.23497  4.08718  3.49858  2.17811  1.53114  1.22608  1.06909
  1.06124  0.90425  0.95129  1.35925  1.80900  3.18916  3.85055  4.27470
  4.17515  3.68355  2.71193  1.96823  0.88051  1.02084  1.59189  2.52883
  3.47767  4.03244  3.86779  3.39508  2.23969  1.66969  1.33019  1.16679
  1.08157  1.02005  1.10493  1.29605  1.79270  2.88632  3.63402  4.05349
  3.97657  3.35415  2.24207  1.18576  0.74267  0.67495  1.31122  2.24278
  3.21905  3.69186  4.76949  4.00571  2.34764  1.77622  1.34849  1.12849
  1.09360  0.76295  0.64220  1.00733  1.73708  2.50787  3.41571  4.45847
  3.84910  3.11193  1.97839  1.18177  0.33803  0.43176  1.23577  2.17947
  2.92428  3.38497  3.39138  3.10177  3.35228  2.15282  1.45287  1.28536
  0.61764  0.23640  0.15650  0.65857  1.56522  2.44967  3.17669  3.78043
  4.22216  2.79953  1.66579  0.59084  0.15579  0.43594  1.52040  2.27449
  2.76979  3.16911  3.12455  2.92674  2.45824  1.88927  1.36443  0.95121
 -0.00243 -0.14438  0.06931  0.84132  1.89921  2.91978  3.46170  3.60722
  3.77366  2.18724  1.52870  0.20777  0.22187  1.10049  2.08960  2.88893
  3.46272  3.66327  3.40280  3.02172  2.23074  1.32476  0.62376  0.25154
 -0.24862  0.05886  0.73935  1.98217  3.25167  4.06285  4.21447  3.90130
  2.90300  1.70374  0.74057  0.52755  1.12943  2.10802  2.78056  3.65981
  4.30377  4.58476  4.35318  3.65296  2.33204  0.81283  0.00000 -0.29835
  0.44379  1.32981  2.39709  3.82578  5.02459  5.42450  4.99639  4.00610
  2.64886  1.63847  1.37610  1.71448  2.28503  2.64949  3.24747  4.17266
  5.17265  5.75041  5.58476  4.21912  2.20540  0.64843  0.02065 -0.08593
  2.15530  3.40478  4.51993  5.80241  6.12627  6.00746  5.12631  4.58197
  2.80154  2.55737  2.87599  2.95502  2.71629  2.60279  3.64721  4.53964
  5.90407  6.82108  6.15044  4.18011  2.15201  0.96807  0.81255  1.19704
  4.21011  5.19583  5.45356  5.26216  5.22957  4.91772  4.44698  3.93537
  3.74038  4.11322  3.92595  2.94210  2.11295  2.42266  3.12536  4.83315
  6.43292  6.19670  5.13463  3.65052  2.40663  2.07125  2.29840  3.03351
  5.33877  4.55338  3.87255  3.87071  3.62149  3.87069  4.31250  4.77933
  5.37137  5.20874  3.65026  2.18763  2.20027  2.18700  3.65026  5.21405
  5.24065  4.77943  4.31250  3.87553  3.63325  5.19982  3.88530  4.53465
  4.20747  3.02450  2.29840  2.07135  2.40664  3.65062  5.13204  6.19680
  6.43292  4.83351  3.12587  2.96667  2.11029  2.93241  3.92594  4.11322
  3.74082  3.93551  4.44698  4.92068  5.53058  5.24416  5.35209  5.19605
  2.15668  1.19704  0.81255  0.96806  2.15211  4.17062  6.15034  6.82108
  5.90407  4.54177  3.63728  2.60267  2.71853  2.95502  2.87589  2.55737
  2.80717  3.89294  5.12631  6.00746  6.12372  5.80230  5.01898  3.40679
  0.45450 -0.08700  0.02065  0.64843  2.20540  4.21912  5.58476  5.75041
  5.17265  4.16788  3.24747  2.64460  2.28503  1.72593  1.37610  1.63847
  2.64538  4.01006  5.00425  5.42091  5.02459  3.80593  2.39681  1.32981
 -0.24862 -0.29835  0.00000  0.81283  2.33214  3.64847  4.35318  4.59008
  4.30377  3.65991  2.78056  2.10802  1.84494  0.52754  0.74067  1.61716
  2.90300  3.89516  4.21447  4.06285  3.25166  1.98217  0.73946  0.07427
 -0.00243  0.25154  0.64043  1.82987  2.23143  3.02038  3.40280  3.66327
  3.46272  2.88893  2.08960  1.10049  0.22171  0.20862  1.52897  2.18595
  3.24376  3.60722  3.46170  2.91968  1.89590  0.84888  0.07066 -0.14460
  0.61764  0.94007  1.36444  1.88927  2.45691  2.92674  3.12469  3.16911
  2.76979  2.27377  1.52040  0.44049  0.15579  0.59084  1.66579  2.79477
  4.25589  3.78043  3.17669  2.45043  1.56512  0.65855  0.15650  0.23719
  1.09360  1.28549  1.45287  2.15281  2.67683  3.10177  3.39138  3.38497
  2.91731  2.17947  1.23582  0.43170  0.33793  1.00844  1.97383  3.11193
  3.84910  4.46392  3.41571  2.50787  1.73708  1.00733  0.64220  0.76295
  0.97094  1.11640  1.33640  1.77623  2.30465  3.21763  3.71128  3.69186
  3.21905  2.24277  1.31122  0.67238  0.74272  1.18578  2.24207  3.35415
  3.97657  4.05349  3.63266  2.88632  1.79270  1.23680  1.00391  1.05657
  0.98044  1.16708  1.33038  1.66969  2.23969  3.39508  3.86779  4.03243
  3.47590  2.52883  1.59193  1.02084  0.88051  1.46518  2.71203  3.68355
  4.17470  4.27471  3.85203  3.18916  1.80900  1.35925  0.95109  0.90998
  0.92229  1.06909  1.22608  1.53114  2.17810  3.49858  4.08708  4.23358
  3.81032  2.85593  1.89254  1.21833  1.28863  2.03059  3.37664  4.03661
  4.43079  4.53101  4.17385  3.43883  2.06053  1.24136  0.83440  0.79652
  1.01976  1.08264  1.20394  1.44647  2.14870  3.54162  4.22527  4.37836
  4.03304  3.13273  2.13407  1.61528  1.83300  2.92219  4.10899  3.89754
  4.43948  4.65256  4.38856  3.70570  1.97095  1.21515  0.89442  0.89767
%FLAG CMAP_PARAMETER_02                                                         
%COMMENT  Thr CMAP                                                              
%FORMAT(8F9.5)                                                                  
 -0.04283  0.18161  1.05439  1.03586  1.32935  1.80299  2.39623  2.93329
  3.35590  3.57777  3.50914  1.68053 -0.39179 -0.93314 -0.64171  0.11454
  0.89169  1.19527  1.06990  0.70217  0.45484  0.13072 -0.22279 -0.64142
 -0.89041 -0.23409  0.59158  0.55751  0.83342  1.42045  2.21734  3.18185
  3.46319  3.49225  2.74426  0.52768 -0.99342 -1.26181 -0.82560 -0.00314
  0.89227  1.33370  1.44561  1.23285  0.82708  0.26308 -0.20670 -0.77475
 -0.77931 -0.21773  0.28830  0.08738  0.88718  0.95262  1.87297  3.11301
  3.13164  3.38335  1.75405  0.07220 -1.09686 -1.29826 -0.91328 -0.03110
  0.83011  1.32603  1.46471  1.28387  0.67901  0.23347 -0.27939 -0.69694
 -0.50786 -0.10197  0.06983 -0.17637  0.06763  0.79727  2.28870  2.45490
  2.93902  3.31058  1.67194  0.10975 -0.84848 -0.98572  0.03685 -0.00657
  0.75442  1.26299  1.46733  1.35576  0.81372  0.99506 -0.07250 -0.48345
  0.10617  0.89653  1.01472  0.51464  0.29597  0.97717  1.86119  2.69722
  3.25863  3.09958  1.98360  0.61582 -0.27072 -0.59401 -0.33506  0.34299
  0.94668  1.38632  1.66220  1.70320  1.34813  1.65038  0.62845  0.23924
  0.72889  0.70286  0.50076  0.83792  0.58321  1.37720  2.36342  3.16093
  3.64517  3.46287  2.41734  1.11469  0.11040 -0.17882  0.19884  0.95013
  1.17771  1.51890  1.83892  2.02544  2.52304  1.54809  1.28633  0.94204
  0.44986  0.84132  1.02745  0.44812  0.85346  1.66099  3.07918  3.29722
  3.67845  3.42114  2.31098  0.98281  0.09466  0.19679  0.86348  1.00796
  1.32832  2.00653  1.85879  2.11827  1.96393  1.65524  1.22698  0.89636
 -0.16092 -0.07801  0.36742  0.71079  1.37539  2.07819  2.78900  3.25905
  3.45281  2.88038  1.70415  0.66784  0.52962  0.91246  1.45720  1.70827
  1.96726  2.05687  2.25152  2.69300  1.87895  1.30437  0.67732  0.16373
 -0.59497 -0.15706  0.87552  1.51129  2.23851  2.99679  3.70183  4.34392
  3.11511  2.42327  1.45045  0.88441  1.17792  1.80802  1.89428  2.26153
  2.77283  3.04412  3.18064  3.02688  2.74623  0.78666  0.00000 -0.39235
 -0.35916  0.39315  1.93035  2.81662  3.65827  4.17673  4.19465  4.39392
  2.95304  2.23500  1.84732  1.84010  2.40277  2.39122  2.40836  2.83657
  3.53179  4.15047  4.32346  3.57356  2.03334  0.38577 -0.25814 -0.48010
  0.90231  2.09057  3.75066  4.41890  5.21329  5.48263  4.81077  4.43634
  3.32223  3.13901  3.21301  3.48840  3.14705  2.66483  2.64675  3.40492
  4.64828  5.45938  5.43806  3.77072  1.88593  0.59482  0.32151  0.46925
  2.84623  5.25750  4.89403  4.16235  4.18058  4.25905  4.39881  4.30063
  4.27196  6.52030  5.09605  4.18296  2.87596  2.88864  2.98802  4.36666
  5.97212  5.37136  4.65053  3.41526  2.12052  1.70730  1.91929  2.22274
  5.08537  3.84174  2.58325  2.05517  2.09913  2.76880  4.07500  5.11462
  6.04360  6.80346  4.29068  2.24439  1.89996  1.49269  2.85393  4.25936
  3.68129  3.16198  3.17712  3.18147  3.06025  3.11939  3.59651  4.06844
  2.95875  1.85563  0.75599  0.11936  0.62544  2.16551  4.28956  6.12775
  6.83966  4.68973  2.85927  1.53513  0.96538  1.77312  2.68992  2.31815
  1.47003  2.17589  2.43707  3.45826  3.94968  4.26320  4.42076  3.92590
  1.51557  0.68246 -0.39230 -0.84277  0.04559  2.19451  4.72922  6.95780
  5.40020  3.82779  2.18071  1.35124  1.31049  1.70777  2.34439  0.75006
  0.44316  1.19441  2.39699  3.43932  4.57651  3.99795  3.91034  2.38687
  1.04547  0.30750 -0.67905 -0.95180  0.30970  2.62028  4.94026  5.63370
  4.90897  3.64364  2.33340  1.59932  2.28424  1.95144  0.81385  0.18108
  0.42251  1.36588  2.52927  3.29540  3.55721  3.32056  2.55338  1.75457
  0.60608  0.40626 -0.68634 -0.66328  0.65725  2.77987  4.62553  5.30870
  4.70772  3.57993  2.28608  1.50195  1.07282  0.51037  0.02107  0.04398
  0.78132  1.81193  2.65223  3.05004  3.29539  2.26809  1.28641  0.82302
  0.22184 -0.08581 -0.51518 -0.31218  0.81241  2.48610  4.04241  4.45494
  4.00716  2.85112  1.57321  0.70165 -0.02248 -0.39760 -0.36780  0.52170
  1.52703  2.32447  2.45530  2.32999  1.42990  0.52248  0.32984 -0.22600
 -0.84996 -0.35427 -0.56081 -0.65299 -0.35852  0.31584  1.22816  2.03830
  2.09882  1.37972  0.15727 -0.97399 -1.60803 -1.26567 -0.30784  0.86931
  1.82810  1.99110  1.50663  1.56367 -0.12333 -0.81892 -1.35944 -1.44084
 -0.71561 -0.48676 -0.90866 -1.05252 -0.76509 -0.25592  1.92498  1.39249
  1.46845  0.73400 -0.53906 -1.52276 -1.96454 -1.58268 -0.76508  0.34222
  1.68651  1.37652  1.09906  0.28335 -0.35007  0.36504 -1.18170 -1.09588
 -0.48043 -0.38894 -0.89246 -1.00398 -0.72977  1.23204  2.16417  3.03543
  3.37771  0.82671 -0.30503 -1.26073 -1.67429 -1.44717 -0.71385  1.24900
  2.08698  2.14998  1.83853  0.59083  0.08661 -0.31277 -0.35513 -0.41066
 -0.69004 -0.51194 -0.32955 -0.69400 -0.07464  0.92871  2.01875  2.85811
  2.77128  1.89030  0.66242 -0.07809 -0.10615 -0.38945  0.85104  1.94679
  1.73514  1.93323  1.84929  1.46327  1.10934  0.57034  0.50272  0.41957
 -1.25344 -1.20087 -1.12615 -1.04924 -0.95384 -0.92645 -0.69918 -0.80083
 -0.88788 -1.12156 -1.25754 -1.27281 -1.10861 -1.24222 -1.29319 -1.21080
 -1.23111 -1.26112 -1.27972 -1.28928 -1.24905 -1.24053 -1.23026 -1.26240
 -0.80998 -0.02949  0.66142  0.58819  0.90096  1.83448  2.35428  2.68721
  2.63478  2.57170  2.31832  1.91349  0.98844 -0.33805 -0.39669  0.23525
  0.83158  0.85527  0.58471  0.11117 -0.22091 -0.31767 -0.30232 -0.53977
%FLAG CMAP_PARAMETER_03                                                         
%COMMENT  Asp CMAP                                                              
%FORMAT(8F9.5)                                                                  
 -1.49562 -1.46758 -1.05587 -0.62963  0.14992  1.22315  2.17140  2.70849
  2.38497  1.72937  0.78456  0.22189 -0.28120 -1.32669 -1.27041 -0.49139
  0.39957  0.88395  0.92343  0.52253 -0.03711 -0.53684 -0.78664 -1.14950
 -0.64489 -0.35503 -0.07025  0.13980  0.63990  1.34390  2.14694  2.65182
  2.63980  2.46358  2.06128  0.12666 -1.27358 -1.82069 -1.58355 -0.69542
  0.26285  0.84428  0.79877  0.40272  0.10166 -0.42888 -0.43529  0.00693
 -0.42804 -0.36910 -0.48433 -0.51308 -0.04683  0.82016  1.70274  2.29461
  2.23181  1.81286  0.54788 -0.88838 -1.78552 -2.06234 -1.63086 -0.84211
  0.15543  0.63475  0.67849  0.33758 -0.22145 -0.35208 -0.33967 -0.47257
  0.28872  0.44823  0.30222  0.17422  0.47890  1.16691  1.95585  2.33566
  2.32125  1.86687  0.72697 -0.39833 -0.96491 -1.00888 -0.68405  0.07457
  0.78111  1.10692  1.04508  0.70100  0.49678  0.21560  0.20943  0.23489
  0.71999  0.82815  0.54467  0.35417  0.72074  1.42855  2.18470  2.45775
  2.35292  1.86194  0.84660 -0.12572 -0.56530 -0.77193 -0.32602  0.31405
  0.83398  1.03708  1.07286  1.05466  0.87630  0.60296  1.14736  0.70843
  1.03998  0.87380  0.46989  0.31562  0.79617  1.57471  2.38948  2.86883
  2.76330  2.17437  1.28784  0.30631 -0.32026 -0.37585  0.11091  0.71397
  0.96823  1.18270  1.32644  1.37983  1.28316  1.17555  1.49550  1.22262
  0.97974  1.16744  0.90297  0.54507  1.16492  2.76751  2.73801  3.15414
  3.04712  2.42995  1.33037  0.40212  0.00720  0.28519  0.83612  1.03536
  1.32229  1.41220  1.64613  1.65576  1.50229  1.29755  1.36353  1.21807
  0.56947  0.66830  0.85946  1.17456  1.86629  2.71927  3.23518  3.33637
  2.81689  1.96261  1.01532  0.28151  0.39885  2.03528  1.66211  1.97715
  2.21266  2.25496  2.71296  2.09240  1.84455  1.89262  0.61624  0.50926
  0.32488  0.73152  1.43091  2.23893  3.20457  3.90721  3.99750  3.37929
  2.29378  1.30243  0.67642  0.75738  1.39616  1.94462  2.37756  2.63964
  3.12320  3.21242  3.10066  2.62911  1.42662  0.23498  0.00000  0.00010
  0.73600  1.59064  2.81308  3.69030  4.64683  5.15404  4.64262  3.19191
  1.81778  1.23102  1.39704  1.88323  2.29514  2.33708  2.53949  3.21211
  3.99577  4.37219  4.28607  4.17382  0.98275 -0.15319 -0.20281  0.18782
  2.31021  3.71717  5.60886  4.34945  4.31542  4.11915  3.38784  2.36621
  1.87800  2.37554  3.00163  2.23706  1.46509  1.02946  1.41558  2.77697
  4.16499  4.44222  3.05201  1.61863  0.26170 -0.23192  0.33982  1.20697
  3.97952  4.63690  3.67634  3.33977  3.39728  3.09758  2.73880  2.52708
  2.89144  4.05099  2.73684  2.43041  0.10319  0.55891  0.97879  2.75597
  4.07597  3.20952  2.02049  1.06720  0.41182  0.67953  1.52192  2.59554
  4.17204  3.88190  2.91020  2.47439  2.24044  2.29340  2.82300  3.31180
  4.10962  4.45591  1.88641  0.35814  0.09355  0.04944  1.59611  3.34374
  3.12305  2.17548  1.61711  1.21835  1.28852  1.86143  2.58726  3.40886
  4.52471  3.16398  2.06366  1.37578  1.36089  2.25188  3.55804  4.50011
  5.07453  3.40006  1.53037  0.88466  0.31377  1.25650  2.71111  3.02874
  1.97372  2.15472  1.59327  2.69414  2.40171  2.73245  3.27608  5.10893
  3.14945  1.90832  0.95730  0.45874  1.22866  2.92255  4.67866  5.93875
  5.15008  3.66383  2.29774  1.72070  1.79854  2.42317  2.77678  1.62694
  1.16044  1.59965  2.44139  3.50199  3.60428  3.88961  4.89752  4.22000
  1.91926  1.05173  0.21400  0.12545  1.45754  3.59387  5.39166  5.58573
  5.04916  4.05587  4.20274  2.64408  2.34109  2.61386  2.07953  0.49445
  0.84121  1.90927  3.06728  3.85257  4.22501  4.37514  3.79127  2.84961
  1.46119  0.48800 -0.09553  0.07014  1.63877  3.47982  4.57471  4.74649
  4.44286  3.81479  2.98666  2.30656  1.73429  1.06748  0.23379 -0.03219
  0.94327  1.97829  2.84941  3.36983  4.08523  3.32868  2.75870  2.00730
  0.75221  0.37623  0.02947  0.33761  1.52499  2.72714  4.19077  3.63118
  3.52459  2.92951  2.14991  1.38545  0.38442 -0.47785 -0.55507  0.29007
  1.29482  1.92247  2.15714  2.33333  2.30165  2.12531  1.71418  1.22141
  0.88641  0.92848  0.87156  1.02232  1.60200  2.35960  2.73873  2.52997
  2.31464  1.83933  1.20802  0.38755 -0.48391 -0.66327 -0.09884  1.02970
  1.82779  2.10988  1.85429  1.45392  1.11870  0.94338  0.81067  0.83826
  1.03200  1.18195  1.13906  1.22457  1.74650  2.32383  2.57689  2.44037
  2.14035  1.63689  0.64869 -0.39809 -0.85334 -0.62553  0.21513  1.19266
  1.87478  1.82009  1.32977  0.86426  0.49278  0.29173  0.37297  0.62169
  0.52072  0.42764  1.03985  0.38917  1.00495  1.79427  2.38328  2.46870
  2.01211  1.24009  0.13122 -0.74933 -1.26874 -1.14283 -0.29027  0.79514
  1.43503  1.40711  1.02307  0.60674  0.27365  0.21750  0.33391  0.40527
 -0.61008 -0.80145 -0.73895 -0.59840  0.12484  0.99044  2.20612  2.15075
  1.57796  0.69818 -0.35451 -1.10407 -1.70906 -1.58366 -0.60563  0.61874
  1.00973  1.01639  0.82233  0.24046 -0.04711 -0.20865 -0.15878 -0.37664
 -1.55972 -1.60220 -1.32780 -0.16944 -0.34409  0.64340  1.65164  2.17103
  1.67259  1.53155 -0.28784 -1.03589 -1.53627 -1.39906 -0.05579  0.43801
  0.55558  0.71337  0.78982  0.45863  0.04903 -0.49554 -0.74942 -1.18854
 -1.84464 -1.86838 -1.48444 -0.60621 -0.44386  0.66811  1.82650  2.39558
  2.02004  1.10338  0.04996 -0.57627 -0.82171 -0.50060 -0.94257 -0.36603
  0.27577  0.82555  0.88844  0.61807 -0.02107 -0.65910 -0.98900 -1.48129
%FLAG CMAP_PARAMETER_04                                                         
%COMMENT  Glu CMAP                                                              
%FORMAT(8F9.5)                                                                  
  0.52228  1.03267  1.49446  1.71567  2.32213  3.14762  3.92563  4.20801
  3.98330  3.71530  3.57288  2.58309  0.80238  0.23594  0.58492  1.30557
  2.02633  2.29570  2.01109  1.51363  0.93886  0.42676  0.35104  0.37207
  0.46712  0.95659  1.27142  1.47987  1.87211  2.60216  3.48241  3.94659
  3.85343  3.66682  3.05663  1.29652  0.23104 -0.06391  0.28443  1.02181
  1.77300  2.04294  1.74637  1.33608  0.85021  0.51827  0.34853  0.38689
  0.71551  1.09158  1.24108  1.20382  1.48762  2.16505  2.99503  3.48416
  3.41748  3.19096  2.31352  0.83653  0.13782  0.01262  0.40937  1.09138
  1.81835  2.13665  1.89587  1.45341  0.93605  0.72196  0.63005  0.61667
  1.23633  1.05303  1.11366  0.99996  1.29649  1.93418  3.18467  3.25814
  3.22031  2.97228  2.05337  0.89582  0.32965  0.71724  0.60788  1.19799
  1.80689  2.12562  1.97969  1.63143  1.25425  1.01734  0.88363  0.83522
  1.30761  1.22768  1.13538  0.95957  1.32807  2.57102  2.89497  3.36108
  3.35684  3.05473  2.14630  1.19745  0.70441  0.58511  1.95205  1.52371
  2.01472  2.22245  2.23903  1.99722  1.68137  1.46224  1.34708  2.06156
  1.63671  1.46009  1.09844  1.02737  1.37694  2.19199  3.07254  3.58620
  3.60893  3.12444  2.30776  1.42648  0.85100  0.78797  1.22689  1.78722
  1.94542  2.08451  2.19484  2.14483  2.04645  1.82787  1.84204  1.79757
  1.12117  1.00459  0.90669  1.08242  1.47107  2.29074  3.15229  3.57314
  3.49268  3.01074  2.09739  1.12356  0.70488  0.98375  1.57771  1.72826
  2.12940  1.85888  2.57109  1.91976  1.72276  1.49132  1.51334  1.32669
  0.40904  0.49960  0.68994  1.12284  1.80289  2.48352  3.11479  3.31150
  3.03017  2.36837  1.42426  0.77455  0.87384  1.61817  2.00898  2.22704
  2.42461  2.30922  2.15056  1.99226  1.92450  0.97224  0.73574  0.48898
  0.08410  0.42215  1.02926  1.87467  2.69476  3.45376  3.67954  3.36972
  2.60475  1.82014  1.20426  1.10888  1.68685  2.34030  2.58542  2.84203
  3.12752  3.12065  2.96167  2.54976  1.40533  0.40382  0.00000 -0.04572
  0.36011  1.15921  2.15592  3.34657  4.26643  4.67710  4.47054  3.44682
  2.32569  1.70699  2.35063  2.04511  2.85433  2.90676  3.10746  3.48225
  3.97016  4.27312  4.16723  3.09772  1.42370  0.02179 -0.30678 -0.03255
  1.65294  2.88664  4.10567  5.16785  5.96730  5.95391  4.93741  3.51176
  2.68707  2.68290  3.24086  3.62179  3.37052  3.15678  3.36134  4.16275
  5.07925  5.82716  5.85962  3.19368  1.29808  0.25271  0.39594  1.05331
  3.81412  5.35486  5.13605  4.60260  4.59158  4.46463  4.15203  3.69566
  3.71043  4.45180  4.65562  5.07199  2.67441  2.96658  3.25503  4.85581
  5.99244  4.94014  3.81956  2.68765  1.60044  1.35847  1.88601  2.75772
  5.65413  4.51620  3.43021  3.07386  2.92666  3.32677  4.07558  4.54241
  5.30174  5.61506  3.86867  2.36536  2.13112  2.02534  3.47267  5.02105
  4.11316  3.37138  2.94913  2.70538  2.53778  2.86068  3.56974  4.58051
  4.77518  3.27951  2.16376  1.58266  1.88553  3.19050  4.62223  5.93455
  6.45147  4.76056  3.14418  2.16040  2.28057  3.08457  4.21043  3.66258
  2.75304  2.55511  2.93208  3.39129  3.79930  4.20397  5.39326  5.43581
  2.56508  1.67090  0.93736  0.58444  1.61800  3.62689  5.59409  6.59827
  5.74431  4.49610  3.35132  2.97981  3.21941  3.67374  3.27120  2.07994
  1.77993  2.39478  3.38696  4.25779  4.52985  4.93882  4.69111  3.61049
  1.26462  0.67708  0.26532  0.30132  2.25604  3.95083  5.47476  5.55371
  5.10155  4.30674  3.56997  3.25845  3.10422  2.55670  1.57151  0.96413
  1.40398  2.42204  3.52777  4.13497  4.07309  3.55975  2.87817  1.99484
  0.55176  0.19150 -0.16597  0.66095  1.62856  3.89802  4.16340  4.26209
  4.12179  3.65628  3.05515  2.49485  1.99083  0.97560  0.41587  0.60386
  1.44967  2.34875  2.94070  3.39727  3.25886  2.19662  1.58376  0.96441
  0.07145 -0.02229 -0.19366  0.09658  1.21303  2.23576  2.78266  2.90510
  2.93369  2.54580  1.95236  1.33023  0.40661 -0.27184 -0.14720  0.69359
  1.64189  1.97936  1.87903  1.97864  1.23292  1.13701  0.51871  0.18909
 -0.01947  0.16303  0.09064  0.20405  0.73128  1.39094  1.86213  1.76276
  1.72469  1.40183  0.86152  0.00437 -0.70891 -0.84671 -0.21411  0.78516
  1.48423  1.42008  0.97414  0.63572  0.21567 -0.09045 -0.23085 -0.26431
  0.23170  0.08163  0.01486  0.12279  0.73992  1.49053  1.97444  2.06779
  1.82022  1.33979  0.43753 -0.54445 -1.08230 -0.91410 -0.20721  0.88163
  1.56893  1.48896  1.00506  0.51282  0.15495  0.02267  0.02666  0.09482
  0.47215  0.31619  0.08314  0.12316  1.11375  1.54478  2.34630  3.47237
  2.30729  1.59681  0.67989 -0.18398 -0.68707 -0.72359  0.03778  1.10405
  1.73728  1.74294  1.46729  1.10511  0.73306  0.61181  0.71670  0.63161
  0.30966  0.18354  0.18180  0.27335  0.79409  1.71529  2.92627  3.19017
  2.77280  1.84258  1.67508  0.27817 -0.33374 -0.33856  0.53257  1.78583
  2.05954  2.09806  1.90196  1.58767  1.24982  1.00802  0.95508  1.73928
 -0.29951 -0.37951  0.07609  0.41404  0.99608  1.96236  3.00787  4.11080
  3.25032  2.20114  1.30186  1.64636  0.41136  0.73319  2.05546  2.04893
  2.01577  2.10384  2.12746  1.90819  1.43544  0.70519  0.34476  0.06379
 -0.95612 -1.18291  1.08842  1.13915  1.84130  2.84517  3.27537  3.80849
  3.39876  2.39368  1.50634  1.02603  1.00555  0.15970  1.20267  1.90054
  2.46726  2.63671  1.85362  1.43775  0.79424 -0.01112 -0.44922 -0.70653
%FLAG CMAP_PARAMETER_05                                                         
%COMMENT  Leu CMAP                                                              
%FORMAT(8F9.5)                                                                  
 -0.86694 -0.26821  0.11903  0.36257  0.95573  1.67477  2.43156  2.60365
  2.27204  1.80613  1.46886  1.61233 -0.96663 -1.49770 -1.08239 -0.09973
  0.68400  0.98069  0.74771  0.20585 -0.44627 -0.94569 -1.07455 -1.03710
 -0.32646  0.18654  0.61372  0.67096  1.01304  1.68958  2.59064  2.69380
  2.62711  2.28315  1.55874 -0.12149 -1.21885 -1.44423 -0.97001 -0.05369
  0.80796  1.12834  0.84158  0.41540 -0.05618 -0.48333 -0.57243 -0.49018
 -0.00270  0.44349  0.67720  0.69907  0.96098  1.51827  2.31922  2.59766
  2.46815  2.10040  1.01494 -0.35138 -1.06078 -0.51379 -0.69064  0.13405
  0.94764  1.25044  1.05896  0.70807  1.27955  0.00478 -0.14861 -0.13199
  0.46773  1.06122  0.84151  0.87321  1.53577  2.26717  2.28379  2.61533
  2.48323  2.10062  0.99888 -0.16216 -0.70927 -0.70653 -0.29305  0.40855
  1.21244  1.57878  1.45953  1.15294  0.73992  0.44830  0.51887  0.42642
  1.08264  1.22032  1.01432  0.92883  1.19777  1.89909  2.63517  2.91989
  2.71483  2.15712  1.13870  0.10970 -0.35319 -0.45575 -0.07314  0.71696
  1.39933  1.70190  1.76612  1.54603  1.28907  0.96167  1.05593  0.99887
  1.28886  1.08719  1.25509  0.61945  1.07490  1.93759  3.19207  3.05501
  2.85024  2.25228  1.28855  0.30319 -0.32580 -0.33934  0.94330  1.01391
  1.36742  1.55398  1.68291  1.69903  1.58878  1.35670  1.38167  1.38984
  0.98482  0.77092  0.58293  0.75254  1.33157  2.19094  2.97361  3.31530
  2.98261  2.34181  1.68188  0.20860 -0.18920  0.15129  0.97347  1.18438
  1.41087  2.18263  1.74084  1.83977  2.49337  1.40782  1.29872  1.23230
  0.48495  0.51375  0.72118  1.16071  2.03516  2.76085  3.33781  3.33714
  3.21881  1.91348  0.71654 -0.06047  0.05722  0.95499  1.57463  1.97846
  2.20669  2.25753  2.16240  2.05082  1.46338  0.92763  0.63950  0.52464
  0.07954  0.44680  1.02424  2.02016  2.99245  3.73027  3.90871  3.36270
  2.34980  1.21384  0.31676  0.22259  0.86998  1.74017  2.65575  2.56314
  2.94846  3.04800  2.92362  2.53858  1.53008  0.44000  0.00000 -0.00769
  0.24993  1.09492  2.17567  3.43132  4.50566  5.05694  4.64546  3.50848
  2.15393  1.27464  0.97041  1.34987  2.11323  2.30548  2.56683  3.12183
  3.71616  4.15639  4.02019  3.11381  1.50702  0.51912 -0.20195 -0.08615
  1.52978  2.82371  4.12062  5.09490  6.15608  6.08176  5.03421  3.52597
  2.34959  2.18514  2.44731  2.85399  2.64346  2.42082  2.71715  3.68263
  4.79352  5.66725  5.08137  3.19151  1.34349  0.25042  0.36715  0.82954
  3.49877  5.10429  4.80281  4.54651  4.68704  4.66098  4.37663  3.68363
  3.39535  3.95518  3.96235  2.85930  2.21248  2.20453  2.53736  4.31396
  5.52110  4.69616  3.78755  2.61424  1.52261  1.35018  1.75048  2.53707
  5.65682  4.15269  3.35229  3.00261  3.08500  3.54523  4.16460  4.62833
  5.13779  5.01177  3.02054  1.47096  1.36914  1.36431  2.92161  6.08683
  3.79124  3.26901  3.87628  3.15138  2.56586  2.96443  3.52026  4.83005
  4.54702  3.10593  2.16146  1.79107  2.10872  3.47796  4.87594  5.92625
  6.01846  4.12483  2.27314  1.85210  1.40705  2.31574  3.63083  3.28348
  2.48395  2.41514  2.93210  3.56664  3.83230  4.13078  4.61915  5.21000
  2.54403  1.68952  0.97521  0.88413  2.02670  4.01998  5.83129  6.49399
  5.45501  4.03342  2.72981  3.04219  2.43764  2.97586  2.73313  1.73379
  1.55615  2.30112  3.86657  4.36600  4.57747  4.78312  4.62251  3.65331
  1.39094  0.80730  0.29380  0.53655  2.14327  4.35364  5.64162  5.52871
  4.81227  3.89474  3.02138  2.56961  2.36903  1.91970  1.04584  0.61644
  1.26738  2.48009  3.51320  4.14947  3.98350  3.59513  2.95805  2.05137
  0.59467  0.26702 -0.00118  0.34338  1.95569  3.71282  4.31538  4.26902
  3.93382  3.80334  2.45012  1.80769  1.23485  0.28708 -0.16539  0.11408
  1.10892  2.16939  3.27563  2.90643  2.66635  2.32593  1.63311  1.04332
 -0.00101 -0.07278 -0.15248  0.39936  1.35477  2.58696  2.88424  2.91922
  2.69118  2.08752  1.30318  0.53921 -0.47040 -1.05688 -0.84349  0.07495
  1.13508  1.90971  1.60384  1.52061  1.19284  0.82628  0.49692  0.18749
  0.52653 -0.01117  0.01170  0.35019  0.99208  1.68051  1.85145  1.71415
  1.38754  0.91039  0.24804 -0.73699 -1.51069 -1.53963 -0.72203  0.43100
  1.18026  1.23810  0.97321  0.69525  0.29409 -0.04217 -0.12688 -0.18077
  0.41738  0.42830  0.25395  0.41670  0.84705  1.54378  1.90242  1.75429
  1.39459  0.87970 -0.19758 -1.19662 -1.65765 -1.41581 -0.57110  0.57555
  1.30161  1.37911  1.15311  0.73096  0.18428  0.11942  0.12025  0.23185
  0.51056  0.47767  0.30339  0.39748  0.84570  1.55327  2.29045  2.38960
  1.92281  1.05703  0.33844 -0.94589 -1.40734 -1.22267 -0.28396  0.91594
  1.42889  1.47580  1.35177  1.37396  0.53214  0.53898  0.61490  0.64450
 -0.24761 -0.32226 -0.19849 -0.08985  1.01997  1.40580  2.20658  2.50290
  1.91878  0.83859 -0.21275 -0.98048 -1.44651 -1.19821  0.00869  1.25483
  1.43243  1.66446  1.63593  0.87150  0.53192  0.38847  0.31803  0.05867
 -0.50737 -1.45363 -0.79190  0.11592  0.23743  1.27007  2.22830  3.43018
  2.03991  0.82982 -0.28204 -0.30716 -1.28098 -0.47386  0.89069  1.08272
  1.18900  1.30124  1.20693  0.90441  0.47681 -0.17330 -0.62574 -1.08723
 -1.62255 -1.96136 -0.83933 -0.65406  0.11828  1.42624  2.54120  2.90447
  2.24826  1.86505 -0.18930 -0.85728 -0.87693 -1.06001 -1.16287  0.46816
  0.39155  1.80618  1.14253  0.79781  0.04909 -0.40498 -1.27362 -1.36635
%FLAG CMAP_PARAMETER_06                                                         
%COMMENT  PRO CMAP                                                              
%FORMAT(8F9.5)                                                                  
 -8.75751 -8.70567 -8.71923 -8.06498 -8.34855 -8.65942 -8.61255 -8.96343
 -8.72425 -8.73027 -8.00206 -8.69021 -8.28693 -8.65324 -8.82302 -8.18448
 -8.41685 -8.80151 -8.70094 -8.53053 -8.75377 -8.86638 -8.50509 -8.01082
 -8.77187 -8.73940 -8.66261 -8.90677 -9.06924 -8.63887 -7.81451 -7.16341
 -6.60542 -6.52662 -7.17952 -8.03381 -8.63601 -8.94480 -8.81277 -8.63859
 -7.86472 -6.93540 -7.11378 -7.02275 -7.31467 -7.34586 -7.17799 -7.85620
 -5.22647 -5.15037 -4.98780 -5.13754 -5.33451 -4.82744 -4.20622 -3.41249
 -2.98580 -3.06940 -3.72285 -4.71405 -5.39928 -5.45522 -5.23830 -4.83426
 -4.84841 -4.83945 -5.01358 -5.08121 -5.29478 -5.39394 -5.42201 -5.34520
 -2.63528 -2.61531 -2.23133 -2.09728 -2.35032 -1.81055 -1.14610 -0.43015
 -0.11029 -0.43642 -1.29900 -2.37678 -3.06813 -3.08683 -2.85132 -2.46945
 -2.09194 -2.00829 -2.13200 -2.22585 -2.45757 -2.72426 -2.91306 -2.79826
 -1.30630 -0.97037 -0.67553 -0.48439 -0.47298  0.09744  0.90710  1.67856
  1.78869  1.18509  0.10465 -0.95429 -1.77557 -2.02642 -1.80129 -1.30282
 -0.60900 -0.54189 -0.52494 -0.62734 -0.87227 -1.16429 -1.40325 -1.32862
 -0.28838 -0.29286 -0.05545  0.01374  0.18833  0.88685  1.88110  2.72301
  2.64392  1.80976  0.76838 -0.23772 -1.30866 -1.56111 -1.05594 -0.63462
 -0.27956 -0.12432  0.08300  0.08848  0.02441 -0.23536 -0.52571 -0.43355
 -0.10107 -0.10925  0.17861  0.46874  0.78386  1.52792  2.37292  3.19523
  2.94448  2.13146  1.04356 -0.13873 -0.96321 -0.82059 -0.33322 -0.30669
 -0.07750  0.24509  0.61203  0.77546  0.60883  0.16196  0.03025 -0.05960
  0.54240  0.73424  1.21584  1.97663  2.86196  3.36571  3.09521  2.89786
  2.65306  1.94911  0.87427  0.10091  0.29512  0.69644  0.77609  0.93694
  1.20253  1.21190  1.23792  1.16370  0.89360  0.32899  0.02924  0.15816
  0.93117  1.89831  2.92739  3.90919  4.66028  4.79265  4.30774  3.45574
  2.67462  1.77740  1.02956  0.85500  1.12685  1.40005  1.65428  2.00981
  2.49411  2.77553  2.72653  2.29924  1.30209  0.28787  0.00000  0.23904
  1.71372  3.17069  4.47459  5.34819  5.66978  5.61442  4.66872  3.50429
  2.46608  1.90184  1.95424  1.90806  1.75946  1.84931  2.08092  2.58532
  3.47075  4.05526  4.07457  2.94449  1.37584  0.18263  0.14274  0.72321
  2.93154  4.65664  5.81638  5.77271  5.70953  5.47038  4.31047  3.14909
  2.37257  2.54260  2.89806  2.29096  1.86624  1.70493  2.04297  2.91863
  4.12444  5.04419  4.44552  2.74661  1.09914  0.24758  0.62132  1.60919
  4.28791  5.74420  5.79671  5.16803  5.05413  4.48695  3.37932  2.59405
  2.54381  3.52801  3.10085  2.02404  1.30444  1.50932  1.70696  3.20804
  4.77364  5.01717  3.51828  1.80915  0.72960  0.85032  1.61355  2.81248
  5.10022  5.11605  4.30598  3.92413  3.37917  2.64150  2.42733  2.53172
  3.38712  3.74798  2.16043  0.80717  1.21776  0.25145  1.73628  3.39163
  4.52876  3.45959  2.15509  1.19505  1.15898  1.90043  2.79231  3.88367
  4.45196  3.70029  2.61706  1.82299  1.19526  1.47132  2.04669  2.98560
  3.87614  2.64572  0.79215  1.29417  0.57185  0.44864  1.83164  3.09417
  2.59096  1.51855  0.91401  1.05809  1.68925  2.43878  3.18205  4.00826
  2.72163  1.41184  0.04207 -0.81206 -0.92504  0.08798  1.44907  2.62605
  2.40258  0.87505 -0.68969 -1.36527 -0.96444 -0.10768  0.99527  0.71308
 -0.24748 -0.63365 -0.44523  0.32710  0.80503  1.32881  2.15503  3.28238
 -0.80511 -2.39777 -3.83456 -4.33430 -3.48052 -1.75445 -0.19983  0.60207
  0.06551 -1.07531 -2.16209 -2.48329 -2.40715 -2.05247 -2.16609 -3.19586
 -3.38809 -3.09350 -2.19949 -1.30642 -0.63336  0.28617  1.31525  0.58937
 -5.49419 -6.90233 -7.85445 -7.71328 -6.35345 -4.49678 -3.09411 -2.51174
 -2.73237 -3.57215 -4.35013 -5.04409 -5.50375 -5.86022 -6.64301 -6.80004
 -6.39815 -5.56010 -4.50638 -3.48952 -2.65640 -2.09936 -2.59104 -3.94783
 -4.95323 -5.81966 -5.21125 -5.74444 -5.56540 -5.11652 -5.21104 -6.68459
 -6.75332 -7.34507 -8.14475 -9.01762 -9.61284 -8.18605 -8.21980 -9.51019
 -8.69486 -8.13634 -7.49936 -6.76770 -5.79355 -6.63124 -7.48945 -8.89257
 -8.90818 -8.48907 -8.42313 -8.89309 -8.14630 -8.36733 -8.05899 -8.97334
 -8.08182 -8.40152 -8.88712 -8.44094 -8.96945 -8.84838 -8.06274 -8.04221
 -8.38659 -8.26564 -8.16867 -8.07604 -8.18975 -8.58300 -8.97423 -8.27557
 -8.58467 -8.84753 -8.42340 -8.80513 -8.29742 -8.94947 -8.12015 -8.36778
 -7.35387 -7.32522 -7.79483 -7.29000 -7.55762 -7.16439 -7.06554 -7.93809
 -7.42050 -7.29676 -7.26130 -7.35832 -7.63448 -7.16499 -7.15108 -7.79839
 -7.17886 -7.19451 -7.53222 -7.90130 -7.37702 -7.15717 -7.90496 -7.29665
 -7.60628 -7.95815 -7.07987 -7.00555 -7.24586 -7.75344 -7.50631 -7.32424
 -6.60700 -6.05537 -6.57198 -6.36398 -6.84789 -6.00007 -6.26382 -6.37899
 -6.97565 -6.79895 -6.81045 -6.38845 -6.75665 -6.50745 -6.34555 -6.97905
 -6.70335 -6.63155 -6.02445 -6.00075 -6.42685 -6.08775 -6.30235 -6.08385
 -4.99155 -4.10475 -4.44005 -4.52855 -4.24195 -4.38705 -4.89415 -4.12825
  0.72785  0.44055  0.25525  0.57015  0.50715  0.31935  0.02685  0.77055
  2.06855  1.95315  2.33365  3.28115  3.15315  4.20805  4.71215  4.07005
  8.99895  8.18825  9.28555  8.47075  7.81095  7.54885  7.86895  8.54445
  8.57285  8.51105  8.06095  8.24775  8.25665  8.34635  8.39995  8.38805
  8.69225  8.43795  8.69725  8.90195  8.97545  8.99285  8.67585  8.52795
  8.32625  8.65405  8.95355  8.25755  8.60965  8.25845  8.46825  8.12375
%FLAG CMAP_INDEX                                                                
%FORMAT(6I8)                                                                    
       5       7       9      12      14       1
      12      14      16      33      35       5
      33      35      37      45      47       3
      45      47      57      59      61       6
      59      61      63      74      76       4
      74      76      78      88      90       2
      88      90      92      95      97       1
      95      97      99     109     111       2
     109     111     113     133     135       5
     133     135     137     140     142       1
