ACE
   144
   2.0000010   1.0000000  -0.0000013   2.0000010   2.0900000   0.0000001
   1.4862640   2.4538490   0.8898240   1.4862590   2.4538520  -0.8898200
   3.4274200   2.6407950  -0.0000030   4.3905800   1.8774060  -0.0000066
   3.5553754   3.9696488  -0.0000031   2.7331200   4.5561601  -0.0000013
   4.8532621   4.6139253  -0.0000043   5.4075960   4.3155388   0.8898152
   5.4075916   4.3155455  -0.8898288   4.6941709   6.1275875   0.0000015
   3.5758295   6.6372478   0.0000062   5.8188447   6.8468467   0.0000027
   6.7155384   6.3820460  -0.0000002   5.8011433   8.2957390   0.0000064
   5.2829920   8.6532876  -0.8898124   5.0831172   8.8360001   1.2321512
   4.0546411   8.4750971   1.2413878   5.5957469   8.4939260   2.1312040
   5.0861498  10.3455390   1.1949564   4.4812140  11.0724062   2.2272923
   4.0080377  10.5486575   3.0578890   4.4840252  12.4719783   2.1928054
   4.0130400  13.0378963   2.9965538   5.0917719  13.1446862   1.1259847
   5.0945034  14.5042708   1.0924848   4.6533250  14.8989954   1.8482319
   5.6967095  12.4178221   0.0936479   6.1698848  12.9415726  -0.7369489
   5.6939005  11.0182501   0.1281298   6.1648888  10.4523347  -0.6756177
   7.2142985   8.8609614   0.0000013   8.1867126   8.1093955  -0.0000050
   7.3260091  10.1912793   0.0000025   6.4966494  10.7677009   0.0000066
   8.6159275  10.8513646  -0.0000003   9.1738672  10.5597719   0.8898178
   9.4287097  10.4681849  -1.2321459   9.5891289   9.3900942  -1.2413845
   8.8870337  10.7621105  -2.1311982  10.7776218  11.1828529  -1.1945312
  11.7285156  10.5884307  -0.6200185  10.8442771  12.3163829  -1.7406689
   8.4568363  12.3650271   0.0000076   7.3384946  12.8746861   0.0000150
   9.5815101  13.0842862   0.0000074  10.8974801  12.4566025   0.0000002
  11.1554927  12.1523884  -1.0143881  10.8828872  11.5808390   0.6487869
  11.7938093  13.5401630   0.5220058  12.7409544  13.5076430  -0.0164713
  11.9763217  13.3922455   1.5863887  11.0638245  14.8388395   0.2757103
  11.5046447  15.3406671  -0.5856523  11.1587274  15.4762861   1.1547751
   9.5637843  14.5351778   0.0000128   9.0636054  14.9272274   0.8855727
   8.8794277  15.0734025  -1.2483680   8.3748899  14.3045931  -2.0637292
   8.8632269  16.4000844  -1.3962794   9.2916356  16.9912897  -0.6983957
   8.2428017  17.0353579  -2.5413131   8.7296056  16.6940373  -3.4548893
   6.7590769  16.6924092  -2.6223770   6.6397031  15.6130000  -2.7157834
   6.2562606  17.0361686  -1.7184382   6.1504912  17.3717759  -3.8257824
   6.2690773  18.4513148  -3.7328634   6.6525175  17.0281453  -4.7302086
   4.6648202  17.0283800  -3.9069515   3.8630066  17.7950480  -3.3095266
   4.3459204  16.0026714  -4.5656054   8.3663456  18.5502169  -2.4611684
   8.9361424  19.0801233  -1.5098687   7.8296386  19.2476748  -3.4650225
   7.3711173  18.7667052  -4.2256313   7.8811330  20.6952043  -3.5051352
   7.3765373  21.1016632  -2.6286232   9.3224830  21.1932834  -3.5123449
   9.3307887  22.2828297  -3.5426773  10.0319421  20.7148173  -2.2500603
  10.0244456  19.6252786  -2.2192573  11.0622429  21.0705669  -2.2547107
   9.5169462  21.1061332  -1.3727053   9.9985545  20.6795565  -4.6629580
  10.9058966  20.9931007  -4.6674972   7.1967747  21.2334291  -4.7535149
   6.6922351  20.4646182  -5.5688737   7.1805750  22.5601109  -4.9014270
   7.6089857  23.1513161  -4.2035444   6.5601484  23.1953845  -6.0464599
   7.0469502  22.8540629  -6.9600368   5.5026052  22.9334141  -6.0792220
   6.6928014  24.7085333  -5.9501941   7.2652440  25.2248700  -4.9930384
   6.1608976  25.4198276  -6.9468705   5.6999146  24.9497307  -7.7127705
   6.2211646  26.8673629  -6.9716061   5.7185313  27.2675538  -6.0910914
   7.6655030  27.3567599  -6.9727978   7.6804125  28.4464963  -6.9915716
   8.3713310  26.8606564  -5.7152953   8.3572306  25.7709177  -5.6960505
   9.4037660  27.2101947  -5.7156470   7.8582057  27.2457594  -4.8341036
   8.3391181  26.8511770  -8.1284480   9.2483415  27.1592558  -8.1291988
   5.5407902  27.4229213  -8.2145581   5.0320812  26.6658634  -9.0382805
   5.5326958  28.7511702  -8.3484029   5.9642713  29.3323416  -7.6440722
   4.9167792  29.4022879  -9.4869523   5.4020340  29.0677301 -10.4038481
   3.4310547  29.0692034  -9.5724028   3.3052103  27.9915870  -9.6773095
   2.9298081  29.4063988  -8.6651260   2.7002924  29.7043065 -10.7311660
   1.4011324  29.5756944 -11.0332279   0.7551048  28.9579765 -10.4093908
   1.1662010  30.3546688 -12.2091991   0.2775236  30.4546965 -12.6786098
   2.2896696  30.9175957 -12.5793778   2.5114000  31.7603349 -13.6751099
   1.6871820  32.0175882 -14.3403799   3.8129819  32.2208476 -13.8360786
   4.0585361  32.8810859 -14.6678770   4.7886405  31.8631857 -12.9742962
   5.8038140  32.2339198 -13.1159949   4.5416271  31.0127108 -11.8771281
   5.3539382  30.7448674 -11.2014719   3.2306816  30.5488830 -11.7149972
   5.0494340  30.9154369  -9.3906875   5.6218791  31.4317722  -8.4335330
   4.5175291  31.6267313 -10.3873632   4.0565441  31.1566345 -11.1532621
   4.5777975  33.0742664 -10.4120997   4.0751664  33.4744583  -9.5315842
   5.6195078  33.3951077 -10.4124054   3.8934358  33.6124913 -11.6604771
   3.3888910  32.8436815 -12.4758341   3.8772383  34.9391730 -11.8083904
   4.3056534  35.5303788 -11.1105092   3.4365704  35.3516760 -12.6181761
